PSF

       4 !NTITLE
 REMARKS NMP pure-solvent initial cube
 REMARKS 800 molecules; cubic side 50.500 A; segid QQQ
 REMARKS X-PLOR atom-type names; generated from supplied CGenFF topology
 REMARKS Use with par_all36_cgenff.prm v5.0 plus par_NMP.prm

   12800 !NATOM
       1 QQQ  1    NMP  C1   CG331     -0.161000       12.0110           0
       2 QQQ  1    NMP  H1   HGA3       0.090000        1.0080           0
       3 QQQ  1    NMP  H2   HGA3       0.090000        1.0080           0
       4 QQQ  1    NMP  H3   HGA3       0.090000        1.0080           0
       5 QQQ  1    NMP  N2   NG2R53    -0.098000       14.0070           0
       6 QQQ  1    NMP  C3   CG3C52    -0.077000       12.0110           0
       7 QQQ  1    NMP  H4   HGA2       0.090000        1.0080           0
       8 QQQ  1    NMP  H5   HGA2       0.090000        1.0080           0
       9 QQQ  1    NMP  C4   CG3C52    -0.233000       12.0110           0
      10 QQQ  1    NMP  H6   HGA2       0.090000        1.0080           0
      11 QQQ  1    NMP  H7   HGA2       0.090000        1.0080           0
      12 QQQ  1    NMP  C5   CG3C52    -0.027000       12.0110           0
      13 QQQ  1    NMP  H8   HGA2       0.090000        1.0080           0
      14 QQQ  1    NMP  H9   HGA2       0.090000        1.0080           0
      15 QQQ  1    NMP  C6   CG2R53     0.286000       12.0110           0
      16 QQQ  1    NMP  O7   OG2D1     -0.500000       15.9990           0
      17 QQQ  2    NMP  C1   CG331     -0.161000       12.0110           0
      18 QQQ  2    NMP  H1   HGA3       0.090000        1.0080           0
      19 QQQ  2    NMP  H2   HGA3       0.090000        1.0080           0
      20 QQQ  2    NMP  H3   HGA3       0.090000        1.0080           0
      21 QQQ  2    NMP  N2   NG2R53    -0.098000       14.0070           0
      22 QQQ  2    NMP  C3   CG3C52    -0.077000       12.0110           0
      23 QQQ  2    NMP  H4   HGA2       0.090000        1.0080           0
      24 QQQ  2    NMP  H5   HGA2       0.090000        1.0080           0
      25 QQQ  2    NMP  C4   CG3C52    -0.233000       12.0110           0
      26 QQQ  2    NMP  H6   HGA2       0.090000        1.0080           0
      27 QQQ  2    NMP  H7   HGA2       0.090000        1.0080           0
      28 QQQ  2    NMP  C5   CG3C52    -0.027000       12.0110           0
      29 QQQ  2    NMP  H8   HGA2       0.090000        1.0080           0
      30 QQQ  2    NMP  H9   HGA2       0.090000        1.0080           0
      31 QQQ  2    NMP  C6   CG2R53     0.286000       12.0110           0
      32 QQQ  2    NMP  O7   OG2D1     -0.500000       15.9990           0
      33 QQQ  3    NMP  C1   CG331     -0.161000       12.0110           0
      34 QQQ  3    NMP  H1   HGA3       0.090000        1.0080           0
      35 QQQ  3    NMP  H2   HGA3       0.090000        1.0080           0
      36 QQQ  3    NMP  H3   HGA3       0.090000        1.0080           0
      37 QQQ  3    NMP  N2   NG2R53    -0.098000       14.0070           0
      38 QQQ  3    NMP  C3   CG3C52    -0.077000       12.0110           0
      39 QQQ  3    NMP  H4   HGA2       0.090000        1.0080           0
      40 QQQ  3    NMP  H5   HGA2       0.090000        1.0080           0
      41 QQQ  3    NMP  C4   CG3C52    -0.233000       12.0110           0
      42 QQQ  3    NMP  H6   HGA2       0.090000        1.0080           0
      43 QQQ  3    NMP  H7   HGA2       0.090000        1.0080           0
      44 QQQ  3    NMP  C5   CG3C52    -0.027000       12.0110           0
      45 QQQ  3    NMP  H8   HGA2       0.090000        1.0080           0
      46 QQQ  3    NMP  H9   HGA2       0.090000        1.0080           0
      47 QQQ  3    NMP  C6   CG2R53     0.286000       12.0110           0
      48 QQQ  3    NMP  O7   OG2D1     -0.500000       15.9990           0
      49 QQQ  4    NMP  C1   CG331     -0.161000       12.0110           0
      50 QQQ  4    NMP  H1   HGA3       0.090000        1.0080           0
      51 QQQ  4    NMP  H2   HGA3       0.090000        1.0080           0
      52 QQQ  4    NMP  H3   HGA3       0.090000        1.0080           0
      53 QQQ  4    NMP  N2   NG2R53    -0.098000       14.0070           0
      54 QQQ  4    NMP  C3   CG3C52    -0.077000       12.0110           0
      55 QQQ  4    NMP  H4   HGA2       0.090000        1.0080           0
      56 QQQ  4    NMP  H5   HGA2       0.090000        1.0080           0
      57 QQQ  4    NMP  C4   CG3C52    -0.233000       12.0110           0
      58 QQQ  4    NMP  H6   HGA2       0.090000        1.0080           0
      59 QQQ  4    NMP  H7   HGA2       0.090000        1.0080           0
      60 QQQ  4    NMP  C5   CG3C52    -0.027000       12.0110           0
      61 QQQ  4    NMP  H8   HGA2       0.090000        1.0080           0
      62 QQQ  4    NMP  H9   HGA2       0.090000        1.0080           0
      63 QQQ  4    NMP  C6   CG2R53     0.286000       12.0110           0
      64 QQQ  4    NMP  O7   OG2D1     -0.500000       15.9990           0
      65 QQQ  5    NMP  C1   CG331     -0.161000       12.0110           0
      66 QQQ  5    NMP  H1   HGA3       0.090000        1.0080           0
      67 QQQ  5    NMP  H2   HGA3       0.090000        1.0080           0
      68 QQQ  5    NMP  H3   HGA3       0.090000        1.0080           0
      69 QQQ  5    NMP  N2   NG2R53    -0.098000       14.0070           0
      70 QQQ  5    NMP  C3   CG3C52    -0.077000       12.0110           0
      71 QQQ  5    NMP  H4   HGA2       0.090000        1.0080           0
      72 QQQ  5    NMP  H5   HGA2       0.090000        1.0080           0
      73 QQQ  5    NMP  C4   CG3C52    -0.233000       12.0110           0
      74 QQQ  5    NMP  H6   HGA2       0.090000        1.0080           0
      75 QQQ  5    NMP  H7   HGA2       0.090000        1.0080           0
      76 QQQ  5    NMP  C5   CG3C52    -0.027000       12.0110           0
      77 QQQ  5    NMP  H8   HGA2       0.090000        1.0080           0
      78 QQQ  5    NMP  H9   HGA2       0.090000        1.0080           0
      79 QQQ  5    NMP  C6   CG2R53     0.286000       12.0110           0
      80 QQQ  5    NMP  O7   OG2D1     -0.500000       15.9990           0
      81 QQQ  6    NMP  C1   CG331     -0.161000       12.0110           0
      82 QQQ  6    NMP  H1   HGA3       0.090000        1.0080           0
      83 QQQ  6    NMP  H2   HGA3       0.090000        1.0080           0
      84 QQQ  6    NMP  H3   HGA3       0.090000        1.0080           0
      85 QQQ  6    NMP  N2   NG2R53    -0.098000       14.0070           0
      86 QQQ  6    NMP  C3   CG3C52    -0.077000       12.0110           0
      87 QQQ  6    NMP  H4   HGA2       0.090000        1.0080           0
      88 QQQ  6    NMP  H5   HGA2       0.090000        1.0080           0
      89 QQQ  6    NMP  C4   CG3C52    -0.233000       12.0110           0
      90 QQQ  6    NMP  H6   HGA2       0.090000        1.0080           0
      91 QQQ  6    NMP  H7   HGA2       0.090000        1.0080           0
      92 QQQ  6    NMP  C5   CG3C52    -0.027000       12.0110           0
      93 QQQ  6    NMP  H8   HGA2       0.090000        1.0080           0
      94 QQQ  6    NMP  H9   HGA2       0.090000        1.0080           0
      95 QQQ  6    NMP  C6   CG2R53     0.286000       12.0110           0
      96 QQQ  6    NMP  O7   OG2D1     -0.500000       15.9990           0
      97 QQQ  7    NMP  C1   CG331     -0.161000       12.0110           0
      98 QQQ  7    NMP  H1   HGA3       0.090000        1.0080           0
      99 QQQ  7    NMP  H2   HGA3       0.090000        1.0080           0
     100 QQQ  7    NMP  H3   HGA3       0.090000        1.0080           0
     101 QQQ  7    NMP  N2   NG2R53    -0.098000       14.0070           0
     102 QQQ  7    NMP  C3   CG3C52    -0.077000       12.0110           0
     103 QQQ  7    NMP  H4   HGA2       0.090000        1.0080           0
     104 QQQ  7    NMP  H5   HGA2       0.090000        1.0080           0
     105 QQQ  7    NMP  C4   CG3C52    -0.233000       12.0110           0
     106 QQQ  7    NMP  H6   HGA2       0.090000        1.0080           0
     107 QQQ  7    NMP  H7   HGA2       0.090000        1.0080           0
     108 QQQ  7    NMP  C5   CG3C52    -0.027000       12.0110           0
     109 QQQ  7    NMP  H8   HGA2       0.090000        1.0080           0
     110 QQQ  7    NMP  H9   HGA2       0.090000        1.0080           0
     111 QQQ  7    NMP  C6   CG2R53     0.286000       12.0110           0
     112 QQQ  7    NMP  O7   OG2D1     -0.500000       15.9990           0
     113 QQQ  8    NMP  C1   CG331     -0.161000       12.0110           0
     114 QQQ  8    NMP  H1   HGA3       0.090000        1.0080           0
     115 QQQ  8    NMP  H2   HGA3       0.090000        1.0080           0
     116 QQQ  8    NMP  H3   HGA3       0.090000        1.0080           0
     117 QQQ  8    NMP  N2   NG2R53    -0.098000       14.0070           0
     118 QQQ  8    NMP  C3   CG3C52    -0.077000       12.0110           0
     119 QQQ  8    NMP  H4   HGA2       0.090000        1.0080           0
     120 QQQ  8    NMP  H5   HGA2       0.090000        1.0080           0
     121 QQQ  8    NMP  C4   CG3C52    -0.233000       12.0110           0
     122 QQQ  8    NMP  H6   HGA2       0.090000        1.0080           0
     123 QQQ  8    NMP  H7   HGA2       0.090000        1.0080           0
     124 QQQ  8    NMP  C5   CG3C52    -0.027000       12.0110           0
     125 QQQ  8    NMP  H8   HGA2       0.090000        1.0080           0
     126 QQQ  8    NMP  H9   HGA2       0.090000        1.0080           0
     127 QQQ  8    NMP  C6   CG2R53     0.286000       12.0110           0
     128 QQQ  8    NMP  O7   OG2D1     -0.500000       15.9990           0
     129 QQQ  9    NMP  C1   CG331     -0.161000       12.0110           0
     130 QQQ  9    NMP  H1   HGA3       0.090000        1.0080           0
     131 QQQ  9    NMP  H2   HGA3       0.090000        1.0080           0
     132 QQQ  9    NMP  H3   HGA3       0.090000        1.0080           0
     133 QQQ  9    NMP  N2   NG2R53    -0.098000       14.0070           0
     134 QQQ  9    NMP  C3   CG3C52    -0.077000       12.0110           0
     135 QQQ  9    NMP  H4   HGA2       0.090000        1.0080           0
     136 QQQ  9    NMP  H5   HGA2       0.090000        1.0080           0
     137 QQQ  9    NMP  C4   CG3C52    -0.233000       12.0110           0
     138 QQQ  9    NMP  H6   HGA2       0.090000        1.0080           0
     139 QQQ  9    NMP  H7   HGA2       0.090000        1.0080           0
     140 QQQ  9    NMP  C5   CG3C52    -0.027000       12.0110           0
     141 QQQ  9    NMP  H8   HGA2       0.090000        1.0080           0
     142 QQQ  9    NMP  H9   HGA2       0.090000        1.0080           0
     143 QQQ  9    NMP  C6   CG2R53     0.286000       12.0110           0
     144 QQQ  9    NMP  O7   OG2D1     -0.500000       15.9990           0
     145 QQQ  10   NMP  C1   CG331     -0.161000       12.0110           0
     146 QQQ  10   NMP  H1   HGA3       0.090000        1.0080           0
     147 QQQ  10   NMP  H2   HGA3       0.090000        1.0080           0
     148 QQQ  10   NMP  H3   HGA3       0.090000        1.0080           0
     149 QQQ  10   NMP  N2   NG2R53    -0.098000       14.0070           0
     150 QQQ  10   NMP  C3   CG3C52    -0.077000       12.0110           0
     151 QQQ  10   NMP  H4   HGA2       0.090000        1.0080           0
     152 QQQ  10   NMP  H5   HGA2       0.090000        1.0080           0
     153 QQQ  10   NMP  C4   CG3C52    -0.233000       12.0110           0
     154 QQQ  10   NMP  H6   HGA2       0.090000        1.0080           0
     155 QQQ  10   NMP  H7   HGA2       0.090000        1.0080           0
     156 QQQ  10   NMP  C5   CG3C52    -0.027000       12.0110           0
     157 QQQ  10   NMP  H8   HGA2       0.090000        1.0080           0
     158 QQQ  10   NMP  H9   HGA2       0.090000        1.0080           0
     159 QQQ  10   NMP  C6   CG2R53     0.286000       12.0110           0
     160 QQQ  10   NMP  O7   OG2D1     -0.500000       15.9990           0
     161 QQQ  11   NMP  C1   CG331     -0.161000       12.0110           0
     162 QQQ  11   NMP  H1   HGA3       0.090000        1.0080           0
     163 QQQ  11   NMP  H2   HGA3       0.090000        1.0080           0
     164 QQQ  11   NMP  H3   HGA3       0.090000        1.0080           0
     165 QQQ  11   NMP  N2   NG2R53    -0.098000       14.0070           0
     166 QQQ  11   NMP  C3   CG3C52    -0.077000       12.0110           0
     167 QQQ  11   NMP  H4   HGA2       0.090000        1.0080           0
     168 QQQ  11   NMP  H5   HGA2       0.090000        1.0080           0
     169 QQQ  11   NMP  C4   CG3C52    -0.233000       12.0110           0
     170 QQQ  11   NMP  H6   HGA2       0.090000        1.0080           0
     171 QQQ  11   NMP  H7   HGA2       0.090000        1.0080           0
     172 QQQ  11   NMP  C5   CG3C52    -0.027000       12.0110           0
     173 QQQ  11   NMP  H8   HGA2       0.090000        1.0080           0
     174 QQQ  11   NMP  H9   HGA2       0.090000        1.0080           0
     175 QQQ  11   NMP  C6   CG2R53     0.286000       12.0110           0
     176 QQQ  11   NMP  O7   OG2D1     -0.500000       15.9990           0
     177 QQQ  12   NMP  C1   CG331     -0.161000       12.0110           0
     178 QQQ  12   NMP  H1   HGA3       0.090000        1.0080           0
     179 QQQ  12   NMP  H2   HGA3       0.090000        1.0080           0
     180 QQQ  12   NMP  H3   HGA3       0.090000        1.0080           0
     181 QQQ  12   NMP  N2   NG2R53    -0.098000       14.0070           0
     182 QQQ  12   NMP  C3   CG3C52    -0.077000       12.0110           0
     183 QQQ  12   NMP  H4   HGA2       0.090000        1.0080           0
     184 QQQ  12   NMP  H5   HGA2       0.090000        1.0080           0
     185 QQQ  12   NMP  C4   CG3C52    -0.233000       12.0110           0
     186 QQQ  12   NMP  H6   HGA2       0.090000        1.0080           0
     187 QQQ  12   NMP  H7   HGA2       0.090000        1.0080           0
     188 QQQ  12   NMP  C5   CG3C52    -0.027000       12.0110           0
     189 QQQ  12   NMP  H8   HGA2       0.090000        1.0080           0
     190 QQQ  12   NMP  H9   HGA2       0.090000        1.0080           0
     191 QQQ  12   NMP  C6   CG2R53     0.286000       12.0110           0
     192 QQQ  12   NMP  O7   OG2D1     -0.500000       15.9990           0
     193 QQQ  13   NMP  C1   CG331     -0.161000       12.0110           0
     194 QQQ  13   NMP  H1   HGA3       0.090000        1.0080           0
     195 QQQ  13   NMP  H2   HGA3       0.090000        1.0080           0
     196 QQQ  13   NMP  H3   HGA3       0.090000        1.0080           0
     197 QQQ  13   NMP  N2   NG2R53    -0.098000       14.0070           0
     198 QQQ  13   NMP  C3   CG3C52    -0.077000       12.0110           0
     199 QQQ  13   NMP  H4   HGA2       0.090000        1.0080           0
     200 QQQ  13   NMP  H5   HGA2       0.090000        1.0080           0
     201 QQQ  13   NMP  C4   CG3C52    -0.233000       12.0110           0
     202 QQQ  13   NMP  H6   HGA2       0.090000        1.0080           0
     203 QQQ  13   NMP  H7   HGA2       0.090000        1.0080           0
     204 QQQ  13   NMP  C5   CG3C52    -0.027000       12.0110           0
     205 QQQ  13   NMP  H8   HGA2       0.090000        1.0080           0
     206 QQQ  13   NMP  H9   HGA2       0.090000        1.0080           0
     207 QQQ  13   NMP  C6   CG2R53     0.286000       12.0110           0
     208 QQQ  13   NMP  O7   OG2D1     -0.500000       15.9990           0
     209 QQQ  14   NMP  C1   CG331     -0.161000       12.0110           0
     210 QQQ  14   NMP  H1   HGA3       0.090000        1.0080           0
     211 QQQ  14   NMP  H2   HGA3       0.090000        1.0080           0
     212 QQQ  14   NMP  H3   HGA3       0.090000        1.0080           0
     213 QQQ  14   NMP  N2   NG2R53    -0.098000       14.0070           0
     214 QQQ  14   NMP  C3   CG3C52    -0.077000       12.0110           0
     215 QQQ  14   NMP  H4   HGA2       0.090000        1.0080           0
     216 QQQ  14   NMP  H5   HGA2       0.090000        1.0080           0
     217 QQQ  14   NMP  C4   CG3C52    -0.233000       12.0110           0
     218 QQQ  14   NMP  H6   HGA2       0.090000        1.0080           0
     219 QQQ  14   NMP  H7   HGA2       0.090000        1.0080           0
     220 QQQ  14   NMP  C5   CG3C52    -0.027000       12.0110           0
     221 QQQ  14   NMP  H8   HGA2       0.090000        1.0080           0
     222 QQQ  14   NMP  H9   HGA2       0.090000        1.0080           0
     223 QQQ  14   NMP  C6   CG2R53     0.286000       12.0110           0
     224 QQQ  14   NMP  O7   OG2D1     -0.500000       15.9990           0
     225 QQQ  15   NMP  C1   CG331     -0.161000       12.0110           0
     226 QQQ  15   NMP  H1   HGA3       0.090000        1.0080           0
     227 QQQ  15   NMP  H2   HGA3       0.090000        1.0080           0
     228 QQQ  15   NMP  H3   HGA3       0.090000        1.0080           0
     229 QQQ  15   NMP  N2   NG2R53    -0.098000       14.0070           0
     230 QQQ  15   NMP  C3   CG3C52    -0.077000       12.0110           0
     231 QQQ  15   NMP  H4   HGA2       0.090000        1.0080           0
     232 QQQ  15   NMP  H5   HGA2       0.090000        1.0080           0
     233 QQQ  15   NMP  C4   CG3C52    -0.233000       12.0110           0
     234 QQQ  15   NMP  H6   HGA2       0.090000        1.0080           0
     235 QQQ  15   NMP  H7   HGA2       0.090000        1.0080           0
     236 QQQ  15   NMP  C5   CG3C52    -0.027000       12.0110           0
     237 QQQ  15   NMP  H8   HGA2       0.090000        1.0080           0
     238 QQQ  15   NMP  H9   HGA2       0.090000        1.0080           0
     239 QQQ  15   NMP  C6   CG2R53     0.286000       12.0110           0
     240 QQQ  15   NMP  O7   OG2D1     -0.500000       15.9990           0
     241 QQQ  16   NMP  C1   CG331     -0.161000       12.0110           0
     242 QQQ  16   NMP  H1   HGA3       0.090000        1.0080           0
     243 QQQ  16   NMP  H2   HGA3       0.090000        1.0080           0
     244 QQQ  16   NMP  H3   HGA3       0.090000        1.0080           0
     245 QQQ  16   NMP  N2   NG2R53    -0.098000       14.0070           0
     246 QQQ  16   NMP  C3   CG3C52    -0.077000       12.0110           0
     247 QQQ  16   NMP  H4   HGA2       0.090000        1.0080           0
     248 QQQ  16   NMP  H5   HGA2       0.090000        1.0080           0
     249 QQQ  16   NMP  C4   CG3C52    -0.233000       12.0110           0
     250 QQQ  16   NMP  H6   HGA2       0.090000        1.0080           0
     251 QQQ  16   NMP  H7   HGA2       0.090000        1.0080           0
     252 QQQ  16   NMP  C5   CG3C52    -0.027000       12.0110           0
     253 QQQ  16   NMP  H8   HGA2       0.090000        1.0080           0
     254 QQQ  16   NMP  H9   HGA2       0.090000        1.0080           0
     255 QQQ  16   NMP  C6   CG2R53     0.286000       12.0110           0
     256 QQQ  16   NMP  O7   OG2D1     -0.500000       15.9990           0
     257 QQQ  17   NMP  C1   CG331     -0.161000       12.0110           0
     258 QQQ  17   NMP  H1   HGA3       0.090000        1.0080           0
     259 QQQ  17   NMP  H2   HGA3       0.090000        1.0080           0
     260 QQQ  17   NMP  H3   HGA3       0.090000        1.0080           0
     261 QQQ  17   NMP  N2   NG2R53    -0.098000       14.0070           0
     262 QQQ  17   NMP  C3   CG3C52    -0.077000       12.0110           0
     263 QQQ  17   NMP  H4   HGA2       0.090000        1.0080           0
     264 QQQ  17   NMP  H5   HGA2       0.090000        1.0080           0
     265 QQQ  17   NMP  C4   CG3C52    -0.233000       12.0110           0
     266 QQQ  17   NMP  H6   HGA2       0.090000        1.0080           0
     267 QQQ  17   NMP  H7   HGA2       0.090000        1.0080           0
     268 QQQ  17   NMP  C5   CG3C52    -0.027000       12.0110           0
     269 QQQ  17   NMP  H8   HGA2       0.090000        1.0080           0
     270 QQQ  17   NMP  H9   HGA2       0.090000        1.0080           0
     271 QQQ  17   NMP  C6   CG2R53     0.286000       12.0110           0
     272 QQQ  17   NMP  O7   OG2D1     -0.500000       15.9990           0
     273 QQQ  18   NMP  C1   CG331     -0.161000       12.0110           0
     274 QQQ  18   NMP  H1   HGA3       0.090000        1.0080           0
     275 QQQ  18   NMP  H2   HGA3       0.090000        1.0080           0
     276 QQQ  18   NMP  H3   HGA3       0.090000        1.0080           0
     277 QQQ  18   NMP  N2   NG2R53    -0.098000       14.0070           0
     278 QQQ  18   NMP  C3   CG3C52    -0.077000       12.0110           0
     279 QQQ  18   NMP  H4   HGA2       0.090000        1.0080           0
     280 QQQ  18   NMP  H5   HGA2       0.090000        1.0080           0
     281 QQQ  18   NMP  C4   CG3C52    -0.233000       12.0110           0
     282 QQQ  18   NMP  H6   HGA2       0.090000        1.0080           0
     283 QQQ  18   NMP  H7   HGA2       0.090000        1.0080           0
     284 QQQ  18   NMP  C5   CG3C52    -0.027000       12.0110           0
     285 QQQ  18   NMP  H8   HGA2       0.090000        1.0080           0
     286 QQQ  18   NMP  H9   HGA2       0.090000        1.0080           0
     287 QQQ  18   NMP  C6   CG2R53     0.286000       12.0110           0
     288 QQQ  18   NMP  O7   OG2D1     -0.500000       15.9990           0
     289 QQQ  19   NMP  C1   CG331     -0.161000       12.0110           0
     290 QQQ  19   NMP  H1   HGA3       0.090000        1.0080           0
     291 QQQ  19   NMP  H2   HGA3       0.090000        1.0080           0
     292 QQQ  19   NMP  H3   HGA3       0.090000        1.0080           0
     293 QQQ  19   NMP  N2   NG2R53    -0.098000       14.0070           0
     294 QQQ  19   NMP  C3   CG3C52    -0.077000       12.0110           0
     295 QQQ  19   NMP  H4   HGA2       0.090000        1.0080           0
     296 QQQ  19   NMP  H5   HGA2       0.090000        1.0080           0
     297 QQQ  19   NMP  C4   CG3C52    -0.233000       12.0110           0
     298 QQQ  19   NMP  H6   HGA2       0.090000        1.0080           0
     299 QQQ  19   NMP  H7   HGA2       0.090000        1.0080           0
     300 QQQ  19   NMP  C5   CG3C52    -0.027000       12.0110           0
     301 QQQ  19   NMP  H8   HGA2       0.090000        1.0080           0
     302 QQQ  19   NMP  H9   HGA2       0.090000        1.0080           0
     303 QQQ  19   NMP  C6   CG2R53     0.286000       12.0110           0
     304 QQQ  19   NMP  O7   OG2D1     -0.500000       15.9990           0
     305 QQQ  20   NMP  C1   CG331     -0.161000       12.0110           0
     306 QQQ  20   NMP  H1   HGA3       0.090000        1.0080           0
     307 QQQ  20   NMP  H2   HGA3       0.090000        1.0080           0
     308 QQQ  20   NMP  H3   HGA3       0.090000        1.0080           0
     309 QQQ  20   NMP  N2   NG2R53    -0.098000       14.0070           0
     310 QQQ  20   NMP  C3   CG3C52    -0.077000       12.0110           0
     311 QQQ  20   NMP  H4   HGA2       0.090000        1.0080           0
     312 QQQ  20   NMP  H5   HGA2       0.090000        1.0080           0
     313 QQQ  20   NMP  C4   CG3C52    -0.233000       12.0110           0
     314 QQQ  20   NMP  H6   HGA2       0.090000        1.0080           0
     315 QQQ  20   NMP  H7   HGA2       0.090000        1.0080           0
     316 QQQ  20   NMP  C5   CG3C52    -0.027000       12.0110           0
     317 QQQ  20   NMP  H8   HGA2       0.090000        1.0080           0
     318 QQQ  20   NMP  H9   HGA2       0.090000        1.0080           0
     319 QQQ  20   NMP  C6   CG2R53     0.286000       12.0110           0
     320 QQQ  20   NMP  O7   OG2D1     -0.500000       15.9990           0
     321 QQQ  21   NMP  C1   CG331     -0.161000       12.0110           0
     322 QQQ  21   NMP  H1   HGA3       0.090000        1.0080           0
     323 QQQ  21   NMP  H2   HGA3       0.090000        1.0080           0
     324 QQQ  21   NMP  H3   HGA3       0.090000        1.0080           0
     325 QQQ  21   NMP  N2   NG2R53    -0.098000       14.0070           0
     326 QQQ  21   NMP  C3   CG3C52    -0.077000       12.0110           0
     327 QQQ  21   NMP  H4   HGA2       0.090000        1.0080           0
     328 QQQ  21   NMP  H5   HGA2       0.090000        1.0080           0
     329 QQQ  21   NMP  C4   CG3C52    -0.233000       12.0110           0
     330 QQQ  21   NMP  H6   HGA2       0.090000        1.0080           0
     331 QQQ  21   NMP  H7   HGA2       0.090000        1.0080           0
     332 QQQ  21   NMP  C5   CG3C52    -0.027000       12.0110           0
     333 QQQ  21   NMP  H8   HGA2       0.090000        1.0080           0
     334 QQQ  21   NMP  H9   HGA2       0.090000        1.0080           0
     335 QQQ  21   NMP  C6   CG2R53     0.286000       12.0110           0
     336 QQQ  21   NMP  O7   OG2D1     -0.500000       15.9990           0
     337 QQQ  22   NMP  C1   CG331     -0.161000       12.0110           0
     338 QQQ  22   NMP  H1   HGA3       0.090000        1.0080           0
     339 QQQ  22   NMP  H2   HGA3       0.090000        1.0080           0
     340 QQQ  22   NMP  H3   HGA3       0.090000        1.0080           0
     341 QQQ  22   NMP  N2   NG2R53    -0.098000       14.0070           0
     342 QQQ  22   NMP  C3   CG3C52    -0.077000       12.0110           0
     343 QQQ  22   NMP  H4   HGA2       0.090000        1.0080           0
     344 QQQ  22   NMP  H5   HGA2       0.090000        1.0080           0
     345 QQQ  22   NMP  C4   CG3C52    -0.233000       12.0110           0
     346 QQQ  22   NMP  H6   HGA2       0.090000        1.0080           0
     347 QQQ  22   NMP  H7   HGA2       0.090000        1.0080           0
     348 QQQ  22   NMP  C5   CG3C52    -0.027000       12.0110           0
     349 QQQ  22   NMP  H8   HGA2       0.090000        1.0080           0
     350 QQQ  22   NMP  H9   HGA2       0.090000        1.0080           0
     351 QQQ  22   NMP  C6   CG2R53     0.286000       12.0110           0
     352 QQQ  22   NMP  O7   OG2D1     -0.500000       15.9990           0
     353 QQQ  23   NMP  C1   CG331     -0.161000       12.0110           0
     354 QQQ  23   NMP  H1   HGA3       0.090000        1.0080           0
     355 QQQ  23   NMP  H2   HGA3       0.090000        1.0080           0
     356 QQQ  23   NMP  H3   HGA3       0.090000        1.0080           0
     357 QQQ  23   NMP  N2   NG2R53    -0.098000       14.0070           0
     358 QQQ  23   NMP  C3   CG3C52    -0.077000       12.0110           0
     359 QQQ  23   NMP  H4   HGA2       0.090000        1.0080           0
     360 QQQ  23   NMP  H5   HGA2       0.090000        1.0080           0
     361 QQQ  23   NMP  C4   CG3C52    -0.233000       12.0110           0
     362 QQQ  23   NMP  H6   HGA2       0.090000        1.0080           0
     363 QQQ  23   NMP  H7   HGA2       0.090000        1.0080           0
     364 QQQ  23   NMP  C5   CG3C52    -0.027000       12.0110           0
     365 QQQ  23   NMP  H8   HGA2       0.090000        1.0080           0
     366 QQQ  23   NMP  H9   HGA2       0.090000        1.0080           0
     367 QQQ  23   NMP  C6   CG2R53     0.286000       12.0110           0
     368 QQQ  23   NMP  O7   OG2D1     -0.500000       15.9990           0
     369 QQQ  24   NMP  C1   CG331     -0.161000       12.0110           0
     370 QQQ  24   NMP  H1   HGA3       0.090000        1.0080           0
     371 QQQ  24   NMP  H2   HGA3       0.090000        1.0080           0
     372 QQQ  24   NMP  H3   HGA3       0.090000        1.0080           0
     373 QQQ  24   NMP  N2   NG2R53    -0.098000       14.0070           0
     374 QQQ  24   NMP  C3   CG3C52    -0.077000       12.0110           0
     375 QQQ  24   NMP  H4   HGA2       0.090000        1.0080           0
     376 QQQ  24   NMP  H5   HGA2       0.090000        1.0080           0
     377 QQQ  24   NMP  C4   CG3C52    -0.233000       12.0110           0
     378 QQQ  24   NMP  H6   HGA2       0.090000        1.0080           0
     379 QQQ  24   NMP  H7   HGA2       0.090000        1.0080           0
     380 QQQ  24   NMP  C5   CG3C52    -0.027000       12.0110           0
     381 QQQ  24   NMP  H8   HGA2       0.090000        1.0080           0
     382 QQQ  24   NMP  H9   HGA2       0.090000        1.0080           0
     383 QQQ  24   NMP  C6   CG2R53     0.286000       12.0110           0
     384 QQQ  24   NMP  O7   OG2D1     -0.500000       15.9990           0
     385 QQQ  25   NMP  C1   CG331     -0.161000       12.0110           0
     386 QQQ  25   NMP  H1   HGA3       0.090000        1.0080           0
     387 QQQ  25   NMP  H2   HGA3       0.090000        1.0080           0
     388 QQQ  25   NMP  H3   HGA3       0.090000        1.0080           0
     389 QQQ  25   NMP  N2   NG2R53    -0.098000       14.0070           0
     390 QQQ  25   NMP  C3   CG3C52    -0.077000       12.0110           0
     391 QQQ  25   NMP  H4   HGA2       0.090000        1.0080           0
     392 QQQ  25   NMP  H5   HGA2       0.090000        1.0080           0
     393 QQQ  25   NMP  C4   CG3C52    -0.233000       12.0110           0
     394 QQQ  25   NMP  H6   HGA2       0.090000        1.0080           0
     395 QQQ  25   NMP  H7   HGA2       0.090000        1.0080           0
     396 QQQ  25   NMP  C5   CG3C52    -0.027000       12.0110           0
     397 QQQ  25   NMP  H8   HGA2       0.090000        1.0080           0
     398 QQQ  25   NMP  H9   HGA2       0.090000        1.0080           0
     399 QQQ  25   NMP  C6   CG2R53     0.286000       12.0110           0
     400 QQQ  25   NMP  O7   OG2D1     -0.500000       15.9990           0
     401 QQQ  26   NMP  C1   CG331     -0.161000       12.0110           0
     402 QQQ  26   NMP  H1   HGA3       0.090000        1.0080           0
     403 QQQ  26   NMP  H2   HGA3       0.090000        1.0080           0
     404 QQQ  26   NMP  H3   HGA3       0.090000        1.0080           0
     405 QQQ  26   NMP  N2   NG2R53    -0.098000       14.0070           0
     406 QQQ  26   NMP  C3   CG3C52    -0.077000       12.0110           0
     407 QQQ  26   NMP  H4   HGA2       0.090000        1.0080           0
     408 QQQ  26   NMP  H5   HGA2       0.090000        1.0080           0
     409 QQQ  26   NMP  C4   CG3C52    -0.233000       12.0110           0
     410 QQQ  26   NMP  H6   HGA2       0.090000        1.0080           0
     411 QQQ  26   NMP  H7   HGA2       0.090000        1.0080           0
     412 QQQ  26   NMP  C5   CG3C52    -0.027000       12.0110           0
     413 QQQ  26   NMP  H8   HGA2       0.090000        1.0080           0
     414 QQQ  26   NMP  H9   HGA2       0.090000        1.0080           0
     415 QQQ  26   NMP  C6   CG2R53     0.286000       12.0110           0
     416 QQQ  26   NMP  O7   OG2D1     -0.500000       15.9990           0
     417 QQQ  27   NMP  C1   CG331     -0.161000       12.0110           0
     418 QQQ  27   NMP  H1   HGA3       0.090000        1.0080           0
     419 QQQ  27   NMP  H2   HGA3       0.090000        1.0080           0
     420 QQQ  27   NMP  H3   HGA3       0.090000        1.0080           0
     421 QQQ  27   NMP  N2   NG2R53    -0.098000       14.0070           0
     422 QQQ  27   NMP  C3   CG3C52    -0.077000       12.0110           0
     423 QQQ  27   NMP  H4   HGA2       0.090000        1.0080           0
     424 QQQ  27   NMP  H5   HGA2       0.090000        1.0080           0
     425 QQQ  27   NMP  C4   CG3C52    -0.233000       12.0110           0
     426 QQQ  27   NMP  H6   HGA2       0.090000        1.0080           0
     427 QQQ  27   NMP  H7   HGA2       0.090000        1.0080           0
     428 QQQ  27   NMP  C5   CG3C52    -0.027000       12.0110           0
     429 QQQ  27   NMP  H8   HGA2       0.090000        1.0080           0
     430 QQQ  27   NMP  H9   HGA2       0.090000        1.0080           0
     431 QQQ  27   NMP  C6   CG2R53     0.286000       12.0110           0
     432 QQQ  27   NMP  O7   OG2D1     -0.500000       15.9990           0
     433 QQQ  28   NMP  C1   CG331     -0.161000       12.0110           0
     434 QQQ  28   NMP  H1   HGA3       0.090000        1.0080           0
     435 QQQ  28   NMP  H2   HGA3       0.090000        1.0080           0
     436 QQQ  28   NMP  H3   HGA3       0.090000        1.0080           0
     437 QQQ  28   NMP  N2   NG2R53    -0.098000       14.0070           0
     438 QQQ  28   NMP  C3   CG3C52    -0.077000       12.0110           0
     439 QQQ  28   NMP  H4   HGA2       0.090000        1.0080           0
     440 QQQ  28   NMP  H5   HGA2       0.090000        1.0080           0
     441 QQQ  28   NMP  C4   CG3C52    -0.233000       12.0110           0
     442 QQQ  28   NMP  H6   HGA2       0.090000        1.0080           0
     443 QQQ  28   NMP  H7   HGA2       0.090000        1.0080           0
     444 QQQ  28   NMP  C5   CG3C52    -0.027000       12.0110           0
     445 QQQ  28   NMP  H8   HGA2       0.090000        1.0080           0
     446 QQQ  28   NMP  H9   HGA2       0.090000        1.0080           0
     447 QQQ  28   NMP  C6   CG2R53     0.286000       12.0110           0
     448 QQQ  28   NMP  O7   OG2D1     -0.500000       15.9990           0
     449 QQQ  29   NMP  C1   CG331     -0.161000       12.0110           0
     450 QQQ  29   NMP  H1   HGA3       0.090000        1.0080           0
     451 QQQ  29   NMP  H2   HGA3       0.090000        1.0080           0
     452 QQQ  29   NMP  H3   HGA3       0.090000        1.0080           0
     453 QQQ  29   NMP  N2   NG2R53    -0.098000       14.0070           0
     454 QQQ  29   NMP  C3   CG3C52    -0.077000       12.0110           0
     455 QQQ  29   NMP  H4   HGA2       0.090000        1.0080           0
     456 QQQ  29   NMP  H5   HGA2       0.090000        1.0080           0
     457 QQQ  29   NMP  C4   CG3C52    -0.233000       12.0110           0
     458 QQQ  29   NMP  H6   HGA2       0.090000        1.0080           0
     459 QQQ  29   NMP  H7   HGA2       0.090000        1.0080           0
     460 QQQ  29   NMP  C5   CG3C52    -0.027000       12.0110           0
     461 QQQ  29   NMP  H8   HGA2       0.090000        1.0080           0
     462 QQQ  29   NMP  H9   HGA2       0.090000        1.0080           0
     463 QQQ  29   NMP  C6   CG2R53     0.286000       12.0110           0
     464 QQQ  29   NMP  O7   OG2D1     -0.500000       15.9990           0
     465 QQQ  30   NMP  C1   CG331     -0.161000       12.0110           0
     466 QQQ  30   NMP  H1   HGA3       0.090000        1.0080           0
     467 QQQ  30   NMP  H2   HGA3       0.090000        1.0080           0
     468 QQQ  30   NMP  H3   HGA3       0.090000        1.0080           0
     469 QQQ  30   NMP  N2   NG2R53    -0.098000       14.0070           0
     470 QQQ  30   NMP  C3   CG3C52    -0.077000       12.0110           0
     471 QQQ  30   NMP  H4   HGA2       0.090000        1.0080           0
     472 QQQ  30   NMP  H5   HGA2       0.090000        1.0080           0
     473 QQQ  30   NMP  C4   CG3C52    -0.233000       12.0110           0
     474 QQQ  30   NMP  H6   HGA2       0.090000        1.0080           0
     475 QQQ  30   NMP  H7   HGA2       0.090000        1.0080           0
     476 QQQ  30   NMP  C5   CG3C52    -0.027000       12.0110           0
     477 QQQ  30   NMP  H8   HGA2       0.090000        1.0080           0
     478 QQQ  30   NMP  H9   HGA2       0.090000        1.0080           0
     479 QQQ  30   NMP  C6   CG2R53     0.286000       12.0110           0
     480 QQQ  30   NMP  O7   OG2D1     -0.500000       15.9990           0
     481 QQQ  31   NMP  C1   CG331     -0.161000       12.0110           0
     482 QQQ  31   NMP  H1   HGA3       0.090000        1.0080           0
     483 QQQ  31   NMP  H2   HGA3       0.090000        1.0080           0
     484 QQQ  31   NMP  H3   HGA3       0.090000        1.0080           0
     485 QQQ  31   NMP  N2   NG2R53    -0.098000       14.0070           0
     486 QQQ  31   NMP  C3   CG3C52    -0.077000       12.0110           0
     487 QQQ  31   NMP  H4   HGA2       0.090000        1.0080           0
     488 QQQ  31   NMP  H5   HGA2       0.090000        1.0080           0
     489 QQQ  31   NMP  C4   CG3C52    -0.233000       12.0110           0
     490 QQQ  31   NMP  H6   HGA2       0.090000        1.0080           0
     491 QQQ  31   NMP  H7   HGA2       0.090000        1.0080           0
     492 QQQ  31   NMP  C5   CG3C52    -0.027000       12.0110           0
     493 QQQ  31   NMP  H8   HGA2       0.090000        1.0080           0
     494 QQQ  31   NMP  H9   HGA2       0.090000        1.0080           0
     495 QQQ  31   NMP  C6   CG2R53     0.286000       12.0110           0
     496 QQQ  31   NMP  O7   OG2D1     -0.500000       15.9990           0
     497 QQQ  32   NMP  C1   CG331     -0.161000       12.0110           0
     498 QQQ  32   NMP  H1   HGA3       0.090000        1.0080           0
     499 QQQ  32   NMP  H2   HGA3       0.090000        1.0080           0
     500 QQQ  32   NMP  H3   HGA3       0.090000        1.0080           0
     501 QQQ  32   NMP  N2   NG2R53    -0.098000       14.0070           0
     502 QQQ  32   NMP  C3   CG3C52    -0.077000       12.0110           0
     503 QQQ  32   NMP  H4   HGA2       0.090000        1.0080           0
     504 QQQ  32   NMP  H5   HGA2       0.090000        1.0080           0
     505 QQQ  32   NMP  C4   CG3C52    -0.233000       12.0110           0
     506 QQQ  32   NMP  H6   HGA2       0.090000        1.0080           0
     507 QQQ  32   NMP  H7   HGA2       0.090000        1.0080           0
     508 QQQ  32   NMP  C5   CG3C52    -0.027000       12.0110           0
     509 QQQ  32   NMP  H8   HGA2       0.090000        1.0080           0
     510 QQQ  32   NMP  H9   HGA2       0.090000        1.0080           0
     511 QQQ  32   NMP  C6   CG2R53     0.286000       12.0110           0
     512 QQQ  32   NMP  O7   OG2D1     -0.500000       15.9990           0
     513 QQQ  33   NMP  C1   CG331     -0.161000       12.0110           0
     514 QQQ  33   NMP  H1   HGA3       0.090000        1.0080           0
     515 QQQ  33   NMP  H2   HGA3       0.090000        1.0080           0
     516 QQQ  33   NMP  H3   HGA3       0.090000        1.0080           0
     517 QQQ  33   NMP  N2   NG2R53    -0.098000       14.0070           0
     518 QQQ  33   NMP  C3   CG3C52    -0.077000       12.0110           0
     519 QQQ  33   NMP  H4   HGA2       0.090000        1.0080           0
     520 QQQ  33   NMP  H5   HGA2       0.090000        1.0080           0
     521 QQQ  33   NMP  C4   CG3C52    -0.233000       12.0110           0
     522 QQQ  33   NMP  H6   HGA2       0.090000        1.0080           0
     523 QQQ  33   NMP  H7   HGA2       0.090000        1.0080           0
     524 QQQ  33   NMP  C5   CG3C52    -0.027000       12.0110           0
     525 QQQ  33   NMP  H8   HGA2       0.090000        1.0080           0
     526 QQQ  33   NMP  H9   HGA2       0.090000        1.0080           0
     527 QQQ  33   NMP  C6   CG2R53     0.286000       12.0110           0
     528 QQQ  33   NMP  O7   OG2D1     -0.500000       15.9990           0
     529 QQQ  34   NMP  C1   CG331     -0.161000       12.0110           0
     530 QQQ  34   NMP  H1   HGA3       0.090000        1.0080           0
     531 QQQ  34   NMP  H2   HGA3       0.090000        1.0080           0
     532 QQQ  34   NMP  H3   HGA3       0.090000        1.0080           0
     533 QQQ  34   NMP  N2   NG2R53    -0.098000       14.0070           0
     534 QQQ  34   NMP  C3   CG3C52    -0.077000       12.0110           0
     535 QQQ  34   NMP  H4   HGA2       0.090000        1.0080           0
     536 QQQ  34   NMP  H5   HGA2       0.090000        1.0080           0
     537 QQQ  34   NMP  C4   CG3C52    -0.233000       12.0110           0
     538 QQQ  34   NMP  H6   HGA2       0.090000        1.0080           0
     539 QQQ  34   NMP  H7   HGA2       0.090000        1.0080           0
     540 QQQ  34   NMP  C5   CG3C52    -0.027000       12.0110           0
     541 QQQ  34   NMP  H8   HGA2       0.090000        1.0080           0
     542 QQQ  34   NMP  H9   HGA2       0.090000        1.0080           0
     543 QQQ  34   NMP  C6   CG2R53     0.286000       12.0110           0
     544 QQQ  34   NMP  O7   OG2D1     -0.500000       15.9990           0
     545 QQQ  35   NMP  C1   CG331     -0.161000       12.0110           0
     546 QQQ  35   NMP  H1   HGA3       0.090000        1.0080           0
     547 QQQ  35   NMP  H2   HGA3       0.090000        1.0080           0
     548 QQQ  35   NMP  H3   HGA3       0.090000        1.0080           0
     549 QQQ  35   NMP  N2   NG2R53    -0.098000       14.0070           0
     550 QQQ  35   NMP  C3   CG3C52    -0.077000       12.0110           0
     551 QQQ  35   NMP  H4   HGA2       0.090000        1.0080           0
     552 QQQ  35   NMP  H5   HGA2       0.090000        1.0080           0
     553 QQQ  35   NMP  C4   CG3C52    -0.233000       12.0110           0
     554 QQQ  35   NMP  H6   HGA2       0.090000        1.0080           0
     555 QQQ  35   NMP  H7   HGA2       0.090000        1.0080           0
     556 QQQ  35   NMP  C5   CG3C52    -0.027000       12.0110           0
     557 QQQ  35   NMP  H8   HGA2       0.090000        1.0080           0
     558 QQQ  35   NMP  H9   HGA2       0.090000        1.0080           0
     559 QQQ  35   NMP  C6   CG2R53     0.286000       12.0110           0
     560 QQQ  35   NMP  O7   OG2D1     -0.500000       15.9990           0
     561 QQQ  36   NMP  C1   CG331     -0.161000       12.0110           0
     562 QQQ  36   NMP  H1   HGA3       0.090000        1.0080           0
     563 QQQ  36   NMP  H2   HGA3       0.090000        1.0080           0
     564 QQQ  36   NMP  H3   HGA3       0.090000        1.0080           0
     565 QQQ  36   NMP  N2   NG2R53    -0.098000       14.0070           0
     566 QQQ  36   NMP  C3   CG3C52    -0.077000       12.0110           0
     567 QQQ  36   NMP  H4   HGA2       0.090000        1.0080           0
     568 QQQ  36   NMP  H5   HGA2       0.090000        1.0080           0
     569 QQQ  36   NMP  C4   CG3C52    -0.233000       12.0110           0
     570 QQQ  36   NMP  H6   HGA2       0.090000        1.0080           0
     571 QQQ  36   NMP  H7   HGA2       0.090000        1.0080           0
     572 QQQ  36   NMP  C5   CG3C52    -0.027000       12.0110           0
     573 QQQ  36   NMP  H8   HGA2       0.090000        1.0080           0
     574 QQQ  36   NMP  H9   HGA2       0.090000        1.0080           0
     575 QQQ  36   NMP  C6   CG2R53     0.286000       12.0110           0
     576 QQQ  36   NMP  O7   OG2D1     -0.500000       15.9990           0
     577 QQQ  37   NMP  C1   CG331     -0.161000       12.0110           0
     578 QQQ  37   NMP  H1   HGA3       0.090000        1.0080           0
     579 QQQ  37   NMP  H2   HGA3       0.090000        1.0080           0
     580 QQQ  37   NMP  H3   HGA3       0.090000        1.0080           0
     581 QQQ  37   NMP  N2   NG2R53    -0.098000       14.0070           0
     582 QQQ  37   NMP  C3   CG3C52    -0.077000       12.0110           0
     583 QQQ  37   NMP  H4   HGA2       0.090000        1.0080           0
     584 QQQ  37   NMP  H5   HGA2       0.090000        1.0080           0
     585 QQQ  37   NMP  C4   CG3C52    -0.233000       12.0110           0
     586 QQQ  37   NMP  H6   HGA2       0.090000        1.0080           0
     587 QQQ  37   NMP  H7   HGA2       0.090000        1.0080           0
     588 QQQ  37   NMP  C5   CG3C52    -0.027000       12.0110           0
     589 QQQ  37   NMP  H8   HGA2       0.090000        1.0080           0
     590 QQQ  37   NMP  H9   HGA2       0.090000        1.0080           0
     591 QQQ  37   NMP  C6   CG2R53     0.286000       12.0110           0
     592 QQQ  37   NMP  O7   OG2D1     -0.500000       15.9990           0
     593 QQQ  38   NMP  C1   CG331     -0.161000       12.0110           0
     594 QQQ  38   NMP  H1   HGA3       0.090000        1.0080           0
     595 QQQ  38   NMP  H2   HGA3       0.090000        1.0080           0
     596 QQQ  38   NMP  H3   HGA3       0.090000        1.0080           0
     597 QQQ  38   NMP  N2   NG2R53    -0.098000       14.0070           0
     598 QQQ  38   NMP  C3   CG3C52    -0.077000       12.0110           0
     599 QQQ  38   NMP  H4   HGA2       0.090000        1.0080           0
     600 QQQ  38   NMP  H5   HGA2       0.090000        1.0080           0
     601 QQQ  38   NMP  C4   CG3C52    -0.233000       12.0110           0
     602 QQQ  38   NMP  H6   HGA2       0.090000        1.0080           0
     603 QQQ  38   NMP  H7   HGA2       0.090000        1.0080           0
     604 QQQ  38   NMP  C5   CG3C52    -0.027000       12.0110           0
     605 QQQ  38   NMP  H8   HGA2       0.090000        1.0080           0
     606 QQQ  38   NMP  H9   HGA2       0.090000        1.0080           0
     607 QQQ  38   NMP  C6   CG2R53     0.286000       12.0110           0
     608 QQQ  38   NMP  O7   OG2D1     -0.500000       15.9990           0
     609 QQQ  39   NMP  C1   CG331     -0.161000       12.0110           0
     610 QQQ  39   NMP  H1   HGA3       0.090000        1.0080           0
     611 QQQ  39   NMP  H2   HGA3       0.090000        1.0080           0
     612 QQQ  39   NMP  H3   HGA3       0.090000        1.0080           0
     613 QQQ  39   NMP  N2   NG2R53    -0.098000       14.0070           0
     614 QQQ  39   NMP  C3   CG3C52    -0.077000       12.0110           0
     615 QQQ  39   NMP  H4   HGA2       0.090000        1.0080           0
     616 QQQ  39   NMP  H5   HGA2       0.090000        1.0080           0
     617 QQQ  39   NMP  C4   CG3C52    -0.233000       12.0110           0
     618 QQQ  39   NMP  H6   HGA2       0.090000        1.0080           0
     619 QQQ  39   NMP  H7   HGA2       0.090000        1.0080           0
     620 QQQ  39   NMP  C5   CG3C52    -0.027000       12.0110           0
     621 QQQ  39   NMP  H8   HGA2       0.090000        1.0080           0
     622 QQQ  39   NMP  H9   HGA2       0.090000        1.0080           0
     623 QQQ  39   NMP  C6   CG2R53     0.286000       12.0110           0
     624 QQQ  39   NMP  O7   OG2D1     -0.500000       15.9990           0
     625 QQQ  40   NMP  C1   CG331     -0.161000       12.0110           0
     626 QQQ  40   NMP  H1   HGA3       0.090000        1.0080           0
     627 QQQ  40   NMP  H2   HGA3       0.090000        1.0080           0
     628 QQQ  40   NMP  H3   HGA3       0.090000        1.0080           0
     629 QQQ  40   NMP  N2   NG2R53    -0.098000       14.0070           0
     630 QQQ  40   NMP  C3   CG3C52    -0.077000       12.0110           0
     631 QQQ  40   NMP  H4   HGA2       0.090000        1.0080           0
     632 QQQ  40   NMP  H5   HGA2       0.090000        1.0080           0
     633 QQQ  40   NMP  C4   CG3C52    -0.233000       12.0110           0
     634 QQQ  40   NMP  H6   HGA2       0.090000        1.0080           0
     635 QQQ  40   NMP  H7   HGA2       0.090000        1.0080           0
     636 QQQ  40   NMP  C5   CG3C52    -0.027000       12.0110           0
     637 QQQ  40   NMP  H8   HGA2       0.090000        1.0080           0
     638 QQQ  40   NMP  H9   HGA2       0.090000        1.0080           0
     639 QQQ  40   NMP  C6   CG2R53     0.286000       12.0110           0
     640 QQQ  40   NMP  O7   OG2D1     -0.500000       15.9990           0
     641 QQQ  41   NMP  C1   CG331     -0.161000       12.0110           0
     642 QQQ  41   NMP  H1   HGA3       0.090000        1.0080           0
     643 QQQ  41   NMP  H2   HGA3       0.090000        1.0080           0
     644 QQQ  41   NMP  H3   HGA3       0.090000        1.0080           0
     645 QQQ  41   NMP  N2   NG2R53    -0.098000       14.0070           0
     646 QQQ  41   NMP  C3   CG3C52    -0.077000       12.0110           0
     647 QQQ  41   NMP  H4   HGA2       0.090000        1.0080           0
     648 QQQ  41   NMP  H5   HGA2       0.090000        1.0080           0
     649 QQQ  41   NMP  C4   CG3C52    -0.233000       12.0110           0
     650 QQQ  41   NMP  H6   HGA2       0.090000        1.0080           0
     651 QQQ  41   NMP  H7   HGA2       0.090000        1.0080           0
     652 QQQ  41   NMP  C5   CG3C52    -0.027000       12.0110           0
     653 QQQ  41   NMP  H8   HGA2       0.090000        1.0080           0
     654 QQQ  41   NMP  H9   HGA2       0.090000        1.0080           0
     655 QQQ  41   NMP  C6   CG2R53     0.286000       12.0110           0
     656 QQQ  41   NMP  O7   OG2D1     -0.500000       15.9990           0
     657 QQQ  42   NMP  C1   CG331     -0.161000       12.0110           0
     658 QQQ  42   NMP  H1   HGA3       0.090000        1.0080           0
     659 QQQ  42   NMP  H2   HGA3       0.090000        1.0080           0
     660 QQQ  42   NMP  H3   HGA3       0.090000        1.0080           0
     661 QQQ  42   NMP  N2   NG2R53    -0.098000       14.0070           0
     662 QQQ  42   NMP  C3   CG3C52    -0.077000       12.0110           0
     663 QQQ  42   NMP  H4   HGA2       0.090000        1.0080           0
     664 QQQ  42   NMP  H5   HGA2       0.090000        1.0080           0
     665 QQQ  42   NMP  C4   CG3C52    -0.233000       12.0110           0
     666 QQQ  42   NMP  H6   HGA2       0.090000        1.0080           0
     667 QQQ  42   NMP  H7   HGA2       0.090000        1.0080           0
     668 QQQ  42   NMP  C5   CG3C52    -0.027000       12.0110           0
     669 QQQ  42   NMP  H8   HGA2       0.090000        1.0080           0
     670 QQQ  42   NMP  H9   HGA2       0.090000        1.0080           0
     671 QQQ  42   NMP  C6   CG2R53     0.286000       12.0110           0
     672 QQQ  42   NMP  O7   OG2D1     -0.500000       15.9990           0
     673 QQQ  43   NMP  C1   CG331     -0.161000       12.0110           0
     674 QQQ  43   NMP  H1   HGA3       0.090000        1.0080           0
     675 QQQ  43   NMP  H2   HGA3       0.090000        1.0080           0
     676 QQQ  43   NMP  H3   HGA3       0.090000        1.0080           0
     677 QQQ  43   NMP  N2   NG2R53    -0.098000       14.0070           0
     678 QQQ  43   NMP  C3   CG3C52    -0.077000       12.0110           0
     679 QQQ  43   NMP  H4   HGA2       0.090000        1.0080           0
     680 QQQ  43   NMP  H5   HGA2       0.090000        1.0080           0
     681 QQQ  43   NMP  C4   CG3C52    -0.233000       12.0110           0
     682 QQQ  43   NMP  H6   HGA2       0.090000        1.0080           0
     683 QQQ  43   NMP  H7   HGA2       0.090000        1.0080           0
     684 QQQ  43   NMP  C5   CG3C52    -0.027000       12.0110           0
     685 QQQ  43   NMP  H8   HGA2       0.090000        1.0080           0
     686 QQQ  43   NMP  H9   HGA2       0.090000        1.0080           0
     687 QQQ  43   NMP  C6   CG2R53     0.286000       12.0110           0
     688 QQQ  43   NMP  O7   OG2D1     -0.500000       15.9990           0
     689 QQQ  44   NMP  C1   CG331     -0.161000       12.0110           0
     690 QQQ  44   NMP  H1   HGA3       0.090000        1.0080           0
     691 QQQ  44   NMP  H2   HGA3       0.090000        1.0080           0
     692 QQQ  44   NMP  H3   HGA3       0.090000        1.0080           0
     693 QQQ  44   NMP  N2   NG2R53    -0.098000       14.0070           0
     694 QQQ  44   NMP  C3   CG3C52    -0.077000       12.0110           0
     695 QQQ  44   NMP  H4   HGA2       0.090000        1.0080           0
     696 QQQ  44   NMP  H5   HGA2       0.090000        1.0080           0
     697 QQQ  44   NMP  C4   CG3C52    -0.233000       12.0110           0
     698 QQQ  44   NMP  H6   HGA2       0.090000        1.0080           0
     699 QQQ  44   NMP  H7   HGA2       0.090000        1.0080           0
     700 QQQ  44   NMP  C5   CG3C52    -0.027000       12.0110           0
     701 QQQ  44   NMP  H8   HGA2       0.090000        1.0080           0
     702 QQQ  44   NMP  H9   HGA2       0.090000        1.0080           0
     703 QQQ  44   NMP  C6   CG2R53     0.286000       12.0110           0
     704 QQQ  44   NMP  O7   OG2D1     -0.500000       15.9990           0
     705 QQQ  45   NMP  C1   CG331     -0.161000       12.0110           0
     706 QQQ  45   NMP  H1   HGA3       0.090000        1.0080           0
     707 QQQ  45   NMP  H2   HGA3       0.090000        1.0080           0
     708 QQQ  45   NMP  H3   HGA3       0.090000        1.0080           0
     709 QQQ  45   NMP  N2   NG2R53    -0.098000       14.0070           0
     710 QQQ  45   NMP  C3   CG3C52    -0.077000       12.0110           0
     711 QQQ  45   NMP  H4   HGA2       0.090000        1.0080           0
     712 QQQ  45   NMP  H5   HGA2       0.090000        1.0080           0
     713 QQQ  45   NMP  C4   CG3C52    -0.233000       12.0110           0
     714 QQQ  45   NMP  H6   HGA2       0.090000        1.0080           0
     715 QQQ  45   NMP  H7   HGA2       0.090000        1.0080           0
     716 QQQ  45   NMP  C5   CG3C52    -0.027000       12.0110           0
     717 QQQ  45   NMP  H8   HGA2       0.090000        1.0080           0
     718 QQQ  45   NMP  H9   HGA2       0.090000        1.0080           0
     719 QQQ  45   NMP  C6   CG2R53     0.286000       12.0110           0
     720 QQQ  45   NMP  O7   OG2D1     -0.500000       15.9990           0
     721 QQQ  46   NMP  C1   CG331     -0.161000       12.0110           0
     722 QQQ  46   NMP  H1   HGA3       0.090000        1.0080           0
     723 QQQ  46   NMP  H2   HGA3       0.090000        1.0080           0
     724 QQQ  46   NMP  H3   HGA3       0.090000        1.0080           0
     725 QQQ  46   NMP  N2   NG2R53    -0.098000       14.0070           0
     726 QQQ  46   NMP  C3   CG3C52    -0.077000       12.0110           0
     727 QQQ  46   NMP  H4   HGA2       0.090000        1.0080           0
     728 QQQ  46   NMP  H5   HGA2       0.090000        1.0080           0
     729 QQQ  46   NMP  C4   CG3C52    -0.233000       12.0110           0
     730 QQQ  46   NMP  H6   HGA2       0.090000        1.0080           0
     731 QQQ  46   NMP  H7   HGA2       0.090000        1.0080           0
     732 QQQ  46   NMP  C5   CG3C52    -0.027000       12.0110           0
     733 QQQ  46   NMP  H8   HGA2       0.090000        1.0080           0
     734 QQQ  46   NMP  H9   HGA2       0.090000        1.0080           0
     735 QQQ  46   NMP  C6   CG2R53     0.286000       12.0110           0
     736 QQQ  46   NMP  O7   OG2D1     -0.500000       15.9990           0
     737 QQQ  47   NMP  C1   CG331     -0.161000       12.0110           0
     738 QQQ  47   NMP  H1   HGA3       0.090000        1.0080           0
     739 QQQ  47   NMP  H2   HGA3       0.090000        1.0080           0
     740 QQQ  47   NMP  H3   HGA3       0.090000        1.0080           0
     741 QQQ  47   NMP  N2   NG2R53    -0.098000       14.0070           0
     742 QQQ  47   NMP  C3   CG3C52    -0.077000       12.0110           0
     743 QQQ  47   NMP  H4   HGA2       0.090000        1.0080           0
     744 QQQ  47   NMP  H5   HGA2       0.090000        1.0080           0
     745 QQQ  47   NMP  C4   CG3C52    -0.233000       12.0110           0
     746 QQQ  47   NMP  H6   HGA2       0.090000        1.0080           0
     747 QQQ  47   NMP  H7   HGA2       0.090000        1.0080           0
     748 QQQ  47   NMP  C5   CG3C52    -0.027000       12.0110           0
     749 QQQ  47   NMP  H8   HGA2       0.090000        1.0080           0
     750 QQQ  47   NMP  H9   HGA2       0.090000        1.0080           0
     751 QQQ  47   NMP  C6   CG2R53     0.286000       12.0110           0
     752 QQQ  47   NMP  O7   OG2D1     -0.500000       15.9990           0
     753 QQQ  48   NMP  C1   CG331     -0.161000       12.0110           0
     754 QQQ  48   NMP  H1   HGA3       0.090000        1.0080           0
     755 QQQ  48   NMP  H2   HGA3       0.090000        1.0080           0
     756 QQQ  48   NMP  H3   HGA3       0.090000        1.0080           0
     757 QQQ  48   NMP  N2   NG2R53    -0.098000       14.0070           0
     758 QQQ  48   NMP  C3   CG3C52    -0.077000       12.0110           0
     759 QQQ  48   NMP  H4   HGA2       0.090000        1.0080           0
     760 QQQ  48   NMP  H5   HGA2       0.090000        1.0080           0
     761 QQQ  48   NMP  C4   CG3C52    -0.233000       12.0110           0
     762 QQQ  48   NMP  H6   HGA2       0.090000        1.0080           0
     763 QQQ  48   NMP  H7   HGA2       0.090000        1.0080           0
     764 QQQ  48   NMP  C5   CG3C52    -0.027000       12.0110           0
     765 QQQ  48   NMP  H8   HGA2       0.090000        1.0080           0
     766 QQQ  48   NMP  H9   HGA2       0.090000        1.0080           0
     767 QQQ  48   NMP  C6   CG2R53     0.286000       12.0110           0
     768 QQQ  48   NMP  O7   OG2D1     -0.500000       15.9990           0
     769 QQQ  49   NMP  C1   CG331     -0.161000       12.0110           0
     770 QQQ  49   NMP  H1   HGA3       0.090000        1.0080           0
     771 QQQ  49   NMP  H2   HGA3       0.090000        1.0080           0
     772 QQQ  49   NMP  H3   HGA3       0.090000        1.0080           0
     773 QQQ  49   NMP  N2   NG2R53    -0.098000       14.0070           0
     774 QQQ  49   NMP  C3   CG3C52    -0.077000       12.0110           0
     775 QQQ  49   NMP  H4   HGA2       0.090000        1.0080           0
     776 QQQ  49   NMP  H5   HGA2       0.090000        1.0080           0
     777 QQQ  49   NMP  C4   CG3C52    -0.233000       12.0110           0
     778 QQQ  49   NMP  H6   HGA2       0.090000        1.0080           0
     779 QQQ  49   NMP  H7   HGA2       0.090000        1.0080           0
     780 QQQ  49   NMP  C5   CG3C52    -0.027000       12.0110           0
     781 QQQ  49   NMP  H8   HGA2       0.090000        1.0080           0
     782 QQQ  49   NMP  H9   HGA2       0.090000        1.0080           0
     783 QQQ  49   NMP  C6   CG2R53     0.286000       12.0110           0
     784 QQQ  49   NMP  O7   OG2D1     -0.500000       15.9990           0
     785 QQQ  50   NMP  C1   CG331     -0.161000       12.0110           0
     786 QQQ  50   NMP  H1   HGA3       0.090000        1.0080           0
     787 QQQ  50   NMP  H2   HGA3       0.090000        1.0080           0
     788 QQQ  50   NMP  H3   HGA3       0.090000        1.0080           0
     789 QQQ  50   NMP  N2   NG2R53    -0.098000       14.0070           0
     790 QQQ  50   NMP  C3   CG3C52    -0.077000       12.0110           0
     791 QQQ  50   NMP  H4   HGA2       0.090000        1.0080           0
     792 QQQ  50   NMP  H5   HGA2       0.090000        1.0080           0
     793 QQQ  50   NMP  C4   CG3C52    -0.233000       12.0110           0
     794 QQQ  50   NMP  H6   HGA2       0.090000        1.0080           0
     795 QQQ  50   NMP  H7   HGA2       0.090000        1.0080           0
     796 QQQ  50   NMP  C5   CG3C52    -0.027000       12.0110           0
     797 QQQ  50   NMP  H8   HGA2       0.090000        1.0080           0
     798 QQQ  50   NMP  H9   HGA2       0.090000        1.0080           0
     799 QQQ  50   NMP  C6   CG2R53     0.286000       12.0110           0
     800 QQQ  50   NMP  O7   OG2D1     -0.500000       15.9990           0
     801 QQQ  51   NMP  C1   CG331     -0.161000       12.0110           0
     802 QQQ  51   NMP  H1   HGA3       0.090000        1.0080           0
     803 QQQ  51   NMP  H2   HGA3       0.090000        1.0080           0
     804 QQQ  51   NMP  H3   HGA3       0.090000        1.0080           0
     805 QQQ  51   NMP  N2   NG2R53    -0.098000       14.0070           0
     806 QQQ  51   NMP  C3   CG3C52    -0.077000       12.0110           0
     807 QQQ  51   NMP  H4   HGA2       0.090000        1.0080           0
     808 QQQ  51   NMP  H5   HGA2       0.090000        1.0080           0
     809 QQQ  51   NMP  C4   CG3C52    -0.233000       12.0110           0
     810 QQQ  51   NMP  H6   HGA2       0.090000        1.0080           0
     811 QQQ  51   NMP  H7   HGA2       0.090000        1.0080           0
     812 QQQ  51   NMP  C5   CG3C52    -0.027000       12.0110           0
     813 QQQ  51   NMP  H8   HGA2       0.090000        1.0080           0
     814 QQQ  51   NMP  H9   HGA2       0.090000        1.0080           0
     815 QQQ  51   NMP  C6   CG2R53     0.286000       12.0110           0
     816 QQQ  51   NMP  O7   OG2D1     -0.500000       15.9990           0
     817 QQQ  52   NMP  C1   CG331     -0.161000       12.0110           0
     818 QQQ  52   NMP  H1   HGA3       0.090000        1.0080           0
     819 QQQ  52   NMP  H2   HGA3       0.090000        1.0080           0
     820 QQQ  52   NMP  H3   HGA3       0.090000        1.0080           0
     821 QQQ  52   NMP  N2   NG2R53    -0.098000       14.0070           0
     822 QQQ  52   NMP  C3   CG3C52    -0.077000       12.0110           0
     823 QQQ  52   NMP  H4   HGA2       0.090000        1.0080           0
     824 QQQ  52   NMP  H5   HGA2       0.090000        1.0080           0
     825 QQQ  52   NMP  C4   CG3C52    -0.233000       12.0110           0
     826 QQQ  52   NMP  H6   HGA2       0.090000        1.0080           0
     827 QQQ  52   NMP  H7   HGA2       0.090000        1.0080           0
     828 QQQ  52   NMP  C5   CG3C52    -0.027000       12.0110           0
     829 QQQ  52   NMP  H8   HGA2       0.090000        1.0080           0
     830 QQQ  52   NMP  H9   HGA2       0.090000        1.0080           0
     831 QQQ  52   NMP  C6   CG2R53     0.286000       12.0110           0
     832 QQQ  52   NMP  O7   OG2D1     -0.500000       15.9990           0
     833 QQQ  53   NMP  C1   CG331     -0.161000       12.0110           0
     834 QQQ  53   NMP  H1   HGA3       0.090000        1.0080           0
     835 QQQ  53   NMP  H2   HGA3       0.090000        1.0080           0
     836 QQQ  53   NMP  H3   HGA3       0.090000        1.0080           0
     837 QQQ  53   NMP  N2   NG2R53    -0.098000       14.0070           0
     838 QQQ  53   NMP  C3   CG3C52    -0.077000       12.0110           0
     839 QQQ  53   NMP  H4   HGA2       0.090000        1.0080           0
     840 QQQ  53   NMP  H5   HGA2       0.090000        1.0080           0
     841 QQQ  53   NMP  C4   CG3C52    -0.233000       12.0110           0
     842 QQQ  53   NMP  H6   HGA2       0.090000        1.0080           0
     843 QQQ  53   NMP  H7   HGA2       0.090000        1.0080           0
     844 QQQ  53   NMP  C5   CG3C52    -0.027000       12.0110           0
     845 QQQ  53   NMP  H8   HGA2       0.090000        1.0080           0
     846 QQQ  53   NMP  H9   HGA2       0.090000        1.0080           0
     847 QQQ  53   NMP  C6   CG2R53     0.286000       12.0110           0
     848 QQQ  53   NMP  O7   OG2D1     -0.500000       15.9990           0
     849 QQQ  54   NMP  C1   CG331     -0.161000       12.0110           0
     850 QQQ  54   NMP  H1   HGA3       0.090000        1.0080           0
     851 QQQ  54   NMP  H2   HGA3       0.090000        1.0080           0
     852 QQQ  54   NMP  H3   HGA3       0.090000        1.0080           0
     853 QQQ  54   NMP  N2   NG2R53    -0.098000       14.0070           0
     854 QQQ  54   NMP  C3   CG3C52    -0.077000       12.0110           0
     855 QQQ  54   NMP  H4   HGA2       0.090000        1.0080           0
     856 QQQ  54   NMP  H5   HGA2       0.090000        1.0080           0
     857 QQQ  54   NMP  C4   CG3C52    -0.233000       12.0110           0
     858 QQQ  54   NMP  H6   HGA2       0.090000        1.0080           0
     859 QQQ  54   NMP  H7   HGA2       0.090000        1.0080           0
     860 QQQ  54   NMP  C5   CG3C52    -0.027000       12.0110           0
     861 QQQ  54   NMP  H8   HGA2       0.090000        1.0080           0
     862 QQQ  54   NMP  H9   HGA2       0.090000        1.0080           0
     863 QQQ  54   NMP  C6   CG2R53     0.286000       12.0110           0
     864 QQQ  54   NMP  O7   OG2D1     -0.500000       15.9990           0
     865 QQQ  55   NMP  C1   CG331     -0.161000       12.0110           0
     866 QQQ  55   NMP  H1   HGA3       0.090000        1.0080           0
     867 QQQ  55   NMP  H2   HGA3       0.090000        1.0080           0
     868 QQQ  55   NMP  H3   HGA3       0.090000        1.0080           0
     869 QQQ  55   NMP  N2   NG2R53    -0.098000       14.0070           0
     870 QQQ  55   NMP  C3   CG3C52    -0.077000       12.0110           0
     871 QQQ  55   NMP  H4   HGA2       0.090000        1.0080           0
     872 QQQ  55   NMP  H5   HGA2       0.090000        1.0080           0
     873 QQQ  55   NMP  C4   CG3C52    -0.233000       12.0110           0
     874 QQQ  55   NMP  H6   HGA2       0.090000        1.0080           0
     875 QQQ  55   NMP  H7   HGA2       0.090000        1.0080           0
     876 QQQ  55   NMP  C5   CG3C52    -0.027000       12.0110           0
     877 QQQ  55   NMP  H8   HGA2       0.090000        1.0080           0
     878 QQQ  55   NMP  H9   HGA2       0.090000        1.0080           0
     879 QQQ  55   NMP  C6   CG2R53     0.286000       12.0110           0
     880 QQQ  55   NMP  O7   OG2D1     -0.500000       15.9990           0
     881 QQQ  56   NMP  C1   CG331     -0.161000       12.0110           0
     882 QQQ  56   NMP  H1   HGA3       0.090000        1.0080           0
     883 QQQ  56   NMP  H2   HGA3       0.090000        1.0080           0
     884 QQQ  56   NMP  H3   HGA3       0.090000        1.0080           0
     885 QQQ  56   NMP  N2   NG2R53    -0.098000       14.0070           0
     886 QQQ  56   NMP  C3   CG3C52    -0.077000       12.0110           0
     887 QQQ  56   NMP  H4   HGA2       0.090000        1.0080           0
     888 QQQ  56   NMP  H5   HGA2       0.090000        1.0080           0
     889 QQQ  56   NMP  C4   CG3C52    -0.233000       12.0110           0
     890 QQQ  56   NMP  H6   HGA2       0.090000        1.0080           0
     891 QQQ  56   NMP  H7   HGA2       0.090000        1.0080           0
     892 QQQ  56   NMP  C5   CG3C52    -0.027000       12.0110           0
     893 QQQ  56   NMP  H8   HGA2       0.090000        1.0080           0
     894 QQQ  56   NMP  H9   HGA2       0.090000        1.0080           0
     895 QQQ  56   NMP  C6   CG2R53     0.286000       12.0110           0
     896 QQQ  56   NMP  O7   OG2D1     -0.500000       15.9990           0
     897 QQQ  57   NMP  C1   CG331     -0.161000       12.0110           0
     898 QQQ  57   NMP  H1   HGA3       0.090000        1.0080           0
     899 QQQ  57   NMP  H2   HGA3       0.090000        1.0080           0
     900 QQQ  57   NMP  H3   HGA3       0.090000        1.0080           0
     901 QQQ  57   NMP  N2   NG2R53    -0.098000       14.0070           0
     902 QQQ  57   NMP  C3   CG3C52    -0.077000       12.0110           0
     903 QQQ  57   NMP  H4   HGA2       0.090000        1.0080           0
     904 QQQ  57   NMP  H5   HGA2       0.090000        1.0080           0
     905 QQQ  57   NMP  C4   CG3C52    -0.233000       12.0110           0
     906 QQQ  57   NMP  H6   HGA2       0.090000        1.0080           0
     907 QQQ  57   NMP  H7   HGA2       0.090000        1.0080           0
     908 QQQ  57   NMP  C5   CG3C52    -0.027000       12.0110           0
     909 QQQ  57   NMP  H8   HGA2       0.090000        1.0080           0
     910 QQQ  57   NMP  H9   HGA2       0.090000        1.0080           0
     911 QQQ  57   NMP  C6   CG2R53     0.286000       12.0110           0
     912 QQQ  57   NMP  O7   OG2D1     -0.500000       15.9990           0
     913 QQQ  58   NMP  C1   CG331     -0.161000       12.0110           0
     914 QQQ  58   NMP  H1   HGA3       0.090000        1.0080           0
     915 QQQ  58   NMP  H2   HGA3       0.090000        1.0080           0
     916 QQQ  58   NMP  H3   HGA3       0.090000        1.0080           0
     917 QQQ  58   NMP  N2   NG2R53    -0.098000       14.0070           0
     918 QQQ  58   NMP  C3   CG3C52    -0.077000       12.0110           0
     919 QQQ  58   NMP  H4   HGA2       0.090000        1.0080           0
     920 QQQ  58   NMP  H5   HGA2       0.090000        1.0080           0
     921 QQQ  58   NMP  C4   CG3C52    -0.233000       12.0110           0
     922 QQQ  58   NMP  H6   HGA2       0.090000        1.0080           0
     923 QQQ  58   NMP  H7   HGA2       0.090000        1.0080           0
     924 QQQ  58   NMP  C5   CG3C52    -0.027000       12.0110           0
     925 QQQ  58   NMP  H8   HGA2       0.090000        1.0080           0
     926 QQQ  58   NMP  H9   HGA2       0.090000        1.0080           0
     927 QQQ  58   NMP  C6   CG2R53     0.286000       12.0110           0
     928 QQQ  58   NMP  O7   OG2D1     -0.500000       15.9990           0
     929 QQQ  59   NMP  C1   CG331     -0.161000       12.0110           0
     930 QQQ  59   NMP  H1   HGA3       0.090000        1.0080           0
     931 QQQ  59   NMP  H2   HGA3       0.090000        1.0080           0
     932 QQQ  59   NMP  H3   HGA3       0.090000        1.0080           0
     933 QQQ  59   NMP  N2   NG2R53    -0.098000       14.0070           0
     934 QQQ  59   NMP  C3   CG3C52    -0.077000       12.0110           0
     935 QQQ  59   NMP  H4   HGA2       0.090000        1.0080           0
     936 QQQ  59   NMP  H5   HGA2       0.090000        1.0080           0
     937 QQQ  59   NMP  C4   CG3C52    -0.233000       12.0110           0
     938 QQQ  59   NMP  H6   HGA2       0.090000        1.0080           0
     939 QQQ  59   NMP  H7   HGA2       0.090000        1.0080           0
     940 QQQ  59   NMP  C5   CG3C52    -0.027000       12.0110           0
     941 QQQ  59   NMP  H8   HGA2       0.090000        1.0080           0
     942 QQQ  59   NMP  H9   HGA2       0.090000        1.0080           0
     943 QQQ  59   NMP  C6   CG2R53     0.286000       12.0110           0
     944 QQQ  59   NMP  O7   OG2D1     -0.500000       15.9990           0
     945 QQQ  60   NMP  C1   CG331     -0.161000       12.0110           0
     946 QQQ  60   NMP  H1   HGA3       0.090000        1.0080           0
     947 QQQ  60   NMP  H2   HGA3       0.090000        1.0080           0
     948 QQQ  60   NMP  H3   HGA3       0.090000        1.0080           0
     949 QQQ  60   NMP  N2   NG2R53    -0.098000       14.0070           0
     950 QQQ  60   NMP  C3   CG3C52    -0.077000       12.0110           0
     951 QQQ  60   NMP  H4   HGA2       0.090000        1.0080           0
     952 QQQ  60   NMP  H5   HGA2       0.090000        1.0080           0
     953 QQQ  60   NMP  C4   CG3C52    -0.233000       12.0110           0
     954 QQQ  60   NMP  H6   HGA2       0.090000        1.0080           0
     955 QQQ  60   NMP  H7   HGA2       0.090000        1.0080           0
     956 QQQ  60   NMP  C5   CG3C52    -0.027000       12.0110           0
     957 QQQ  60   NMP  H8   HGA2       0.090000        1.0080           0
     958 QQQ  60   NMP  H9   HGA2       0.090000        1.0080           0
     959 QQQ  60   NMP  C6   CG2R53     0.286000       12.0110           0
     960 QQQ  60   NMP  O7   OG2D1     -0.500000       15.9990           0
     961 QQQ  61   NMP  C1   CG331     -0.161000       12.0110           0
     962 QQQ  61   NMP  H1   HGA3       0.090000        1.0080           0
     963 QQQ  61   NMP  H2   HGA3       0.090000        1.0080           0
     964 QQQ  61   NMP  H3   HGA3       0.090000        1.0080           0
     965 QQQ  61   NMP  N2   NG2R53    -0.098000       14.0070           0
     966 QQQ  61   NMP  C3   CG3C52    -0.077000       12.0110           0
     967 QQQ  61   NMP  H4   HGA2       0.090000        1.0080           0
     968 QQQ  61   NMP  H5   HGA2       0.090000        1.0080           0
     969 QQQ  61   NMP  C4   CG3C52    -0.233000       12.0110           0
     970 QQQ  61   NMP  H6   HGA2       0.090000        1.0080           0
     971 QQQ  61   NMP  H7   HGA2       0.090000        1.0080           0
     972 QQQ  61   NMP  C5   CG3C52    -0.027000       12.0110           0
     973 QQQ  61   NMP  H8   HGA2       0.090000        1.0080           0
     974 QQQ  61   NMP  H9   HGA2       0.090000        1.0080           0
     975 QQQ  61   NMP  C6   CG2R53     0.286000       12.0110           0
     976 QQQ  61   NMP  O7   OG2D1     -0.500000       15.9990           0
     977 QQQ  62   NMP  C1   CG331     -0.161000       12.0110           0
     978 QQQ  62   NMP  H1   HGA3       0.090000        1.0080           0
     979 QQQ  62   NMP  H2   HGA3       0.090000        1.0080           0
     980 QQQ  62   NMP  H3   HGA3       0.090000        1.0080           0
     981 QQQ  62   NMP  N2   NG2R53    -0.098000       14.0070           0
     982 QQQ  62   NMP  C3   CG3C52    -0.077000       12.0110           0
     983 QQQ  62   NMP  H4   HGA2       0.090000        1.0080           0
     984 QQQ  62   NMP  H5   HGA2       0.090000        1.0080           0
     985 QQQ  62   NMP  C4   CG3C52    -0.233000       12.0110           0
     986 QQQ  62   NMP  H6   HGA2       0.090000        1.0080           0
     987 QQQ  62   NMP  H7   HGA2       0.090000        1.0080           0
     988 QQQ  62   NMP  C5   CG3C52    -0.027000       12.0110           0
     989 QQQ  62   NMP  H8   HGA2       0.090000        1.0080           0
     990 QQQ  62   NMP  H9   HGA2       0.090000        1.0080           0
     991 QQQ  62   NMP  C6   CG2R53     0.286000       12.0110           0
     992 QQQ  62   NMP  O7   OG2D1     -0.500000       15.9990           0
     993 QQQ  63   NMP  C1   CG331     -0.161000       12.0110           0
     994 QQQ  63   NMP  H1   HGA3       0.090000        1.0080           0
     995 QQQ  63   NMP  H2   HGA3       0.090000        1.0080           0
     996 QQQ  63   NMP  H3   HGA3       0.090000        1.0080           0
     997 QQQ  63   NMP  N2   NG2R53    -0.098000       14.0070           0
     998 QQQ  63   NMP  C3   CG3C52    -0.077000       12.0110           0
     999 QQQ  63   NMP  H4   HGA2       0.090000        1.0080           0
    1000 QQQ  63   NMP  H5   HGA2       0.090000        1.0080           0
    1001 QQQ  63   NMP  C4   CG3C52    -0.233000       12.0110           0
    1002 QQQ  63   NMP  H6   HGA2       0.090000        1.0080           0
    1003 QQQ  63   NMP  H7   HGA2       0.090000        1.0080           0
    1004 QQQ  63   NMP  C5   CG3C52    -0.027000       12.0110           0
    1005 QQQ  63   NMP  H8   HGA2       0.090000        1.0080           0
    1006 QQQ  63   NMP  H9   HGA2       0.090000        1.0080           0
    1007 QQQ  63   NMP  C6   CG2R53     0.286000       12.0110           0
    1008 QQQ  63   NMP  O7   OG2D1     -0.500000       15.9990           0
    1009 QQQ  64   NMP  C1   CG331     -0.161000       12.0110           0
    1010 QQQ  64   NMP  H1   HGA3       0.090000        1.0080           0
    1011 QQQ  64   NMP  H2   HGA3       0.090000        1.0080           0
    1012 QQQ  64   NMP  H3   HGA3       0.090000        1.0080           0
    1013 QQQ  64   NMP  N2   NG2R53    -0.098000       14.0070           0
    1014 QQQ  64   NMP  C3   CG3C52    -0.077000       12.0110           0
    1015 QQQ  64   NMP  H4   HGA2       0.090000        1.0080           0
    1016 QQQ  64   NMP  H5   HGA2       0.090000        1.0080           0
    1017 QQQ  64   NMP  C4   CG3C52    -0.233000       12.0110           0
    1018 QQQ  64   NMP  H6   HGA2       0.090000        1.0080           0
    1019 QQQ  64   NMP  H7   HGA2       0.090000        1.0080           0
    1020 QQQ  64   NMP  C5   CG3C52    -0.027000       12.0110           0
    1021 QQQ  64   NMP  H8   HGA2       0.090000        1.0080           0
    1022 QQQ  64   NMP  H9   HGA2       0.090000        1.0080           0
    1023 QQQ  64   NMP  C6   CG2R53     0.286000       12.0110           0
    1024 QQQ  64   NMP  O7   OG2D1     -0.500000       15.9990           0
    1025 QQQ  65   NMP  C1   CG331     -0.161000       12.0110           0
    1026 QQQ  65   NMP  H1   HGA3       0.090000        1.0080           0
    1027 QQQ  65   NMP  H2   HGA3       0.090000        1.0080           0
    1028 QQQ  65   NMP  H3   HGA3       0.090000        1.0080           0
    1029 QQQ  65   NMP  N2   NG2R53    -0.098000       14.0070           0
    1030 QQQ  65   NMP  C3   CG3C52    -0.077000       12.0110           0
    1031 QQQ  65   NMP  H4   HGA2       0.090000        1.0080           0
    1032 QQQ  65   NMP  H5   HGA2       0.090000        1.0080           0
    1033 QQQ  65   NMP  C4   CG3C52    -0.233000       12.0110           0
    1034 QQQ  65   NMP  H6   HGA2       0.090000        1.0080           0
    1035 QQQ  65   NMP  H7   HGA2       0.090000        1.0080           0
    1036 QQQ  65   NMP  C5   CG3C52    -0.027000       12.0110           0
    1037 QQQ  65   NMP  H8   HGA2       0.090000        1.0080           0
    1038 QQQ  65   NMP  H9   HGA2       0.090000        1.0080           0
    1039 QQQ  65   NMP  C6   CG2R53     0.286000       12.0110           0
    1040 QQQ  65   NMP  O7   OG2D1     -0.500000       15.9990           0
    1041 QQQ  66   NMP  C1   CG331     -0.161000       12.0110           0
    1042 QQQ  66   NMP  H1   HGA3       0.090000        1.0080           0
    1043 QQQ  66   NMP  H2   HGA3       0.090000        1.0080           0
    1044 QQQ  66   NMP  H3   HGA3       0.090000        1.0080           0
    1045 QQQ  66   NMP  N2   NG2R53    -0.098000       14.0070           0
    1046 QQQ  66   NMP  C3   CG3C52    -0.077000       12.0110           0
    1047 QQQ  66   NMP  H4   HGA2       0.090000        1.0080           0
    1048 QQQ  66   NMP  H5   HGA2       0.090000        1.0080           0
    1049 QQQ  66   NMP  C4   CG3C52    -0.233000       12.0110           0
    1050 QQQ  66   NMP  H6   HGA2       0.090000        1.0080           0
    1051 QQQ  66   NMP  H7   HGA2       0.090000        1.0080           0
    1052 QQQ  66   NMP  C5   CG3C52    -0.027000       12.0110           0
    1053 QQQ  66   NMP  H8   HGA2       0.090000        1.0080           0
    1054 QQQ  66   NMP  H9   HGA2       0.090000        1.0080           0
    1055 QQQ  66   NMP  C6   CG2R53     0.286000       12.0110           0
    1056 QQQ  66   NMP  O7   OG2D1     -0.500000       15.9990           0
    1057 QQQ  67   NMP  C1   CG331     -0.161000       12.0110           0
    1058 QQQ  67   NMP  H1   HGA3       0.090000        1.0080           0
    1059 QQQ  67   NMP  H2   HGA3       0.090000        1.0080           0
    1060 QQQ  67   NMP  H3   HGA3       0.090000        1.0080           0
    1061 QQQ  67   NMP  N2   NG2R53    -0.098000       14.0070           0
    1062 QQQ  67   NMP  C3   CG3C52    -0.077000       12.0110           0
    1063 QQQ  67   NMP  H4   HGA2       0.090000        1.0080           0
    1064 QQQ  67   NMP  H5   HGA2       0.090000        1.0080           0
    1065 QQQ  67   NMP  C4   CG3C52    -0.233000       12.0110           0
    1066 QQQ  67   NMP  H6   HGA2       0.090000        1.0080           0
    1067 QQQ  67   NMP  H7   HGA2       0.090000        1.0080           0
    1068 QQQ  67   NMP  C5   CG3C52    -0.027000       12.0110           0
    1069 QQQ  67   NMP  H8   HGA2       0.090000        1.0080           0
    1070 QQQ  67   NMP  H9   HGA2       0.090000        1.0080           0
    1071 QQQ  67   NMP  C6   CG2R53     0.286000       12.0110           0
    1072 QQQ  67   NMP  O7   OG2D1     -0.500000       15.9990           0
    1073 QQQ  68   NMP  C1   CG331     -0.161000       12.0110           0
    1074 QQQ  68   NMP  H1   HGA3       0.090000        1.0080           0
    1075 QQQ  68   NMP  H2   HGA3       0.090000        1.0080           0
    1076 QQQ  68   NMP  H3   HGA3       0.090000        1.0080           0
    1077 QQQ  68   NMP  N2   NG2R53    -0.098000       14.0070           0
    1078 QQQ  68   NMP  C3   CG3C52    -0.077000       12.0110           0
    1079 QQQ  68   NMP  H4   HGA2       0.090000        1.0080           0
    1080 QQQ  68   NMP  H5   HGA2       0.090000        1.0080           0
    1081 QQQ  68   NMP  C4   CG3C52    -0.233000       12.0110           0
    1082 QQQ  68   NMP  H6   HGA2       0.090000        1.0080           0
    1083 QQQ  68   NMP  H7   HGA2       0.090000        1.0080           0
    1084 QQQ  68   NMP  C5   CG3C52    -0.027000       12.0110           0
    1085 QQQ  68   NMP  H8   HGA2       0.090000        1.0080           0
    1086 QQQ  68   NMP  H9   HGA2       0.090000        1.0080           0
    1087 QQQ  68   NMP  C6   CG2R53     0.286000       12.0110           0
    1088 QQQ  68   NMP  O7   OG2D1     -0.500000       15.9990           0
    1089 QQQ  69   NMP  C1   CG331     -0.161000       12.0110           0
    1090 QQQ  69   NMP  H1   HGA3       0.090000        1.0080           0
    1091 QQQ  69   NMP  H2   HGA3       0.090000        1.0080           0
    1092 QQQ  69   NMP  H3   HGA3       0.090000        1.0080           0
    1093 QQQ  69   NMP  N2   NG2R53    -0.098000       14.0070           0
    1094 QQQ  69   NMP  C3   CG3C52    -0.077000       12.0110           0
    1095 QQQ  69   NMP  H4   HGA2       0.090000        1.0080           0
    1096 QQQ  69   NMP  H5   HGA2       0.090000        1.0080           0
    1097 QQQ  69   NMP  C4   CG3C52    -0.233000       12.0110           0
    1098 QQQ  69   NMP  H6   HGA2       0.090000        1.0080           0
    1099 QQQ  69   NMP  H7   HGA2       0.090000        1.0080           0
    1100 QQQ  69   NMP  C5   CG3C52    -0.027000       12.0110           0
    1101 QQQ  69   NMP  H8   HGA2       0.090000        1.0080           0
    1102 QQQ  69   NMP  H9   HGA2       0.090000        1.0080           0
    1103 QQQ  69   NMP  C6   CG2R53     0.286000       12.0110           0
    1104 QQQ  69   NMP  O7   OG2D1     -0.500000       15.9990           0
    1105 QQQ  70   NMP  C1   CG331     -0.161000       12.0110           0
    1106 QQQ  70   NMP  H1   HGA3       0.090000        1.0080           0
    1107 QQQ  70   NMP  H2   HGA3       0.090000        1.0080           0
    1108 QQQ  70   NMP  H3   HGA3       0.090000        1.0080           0
    1109 QQQ  70   NMP  N2   NG2R53    -0.098000       14.0070           0
    1110 QQQ  70   NMP  C3   CG3C52    -0.077000       12.0110           0
    1111 QQQ  70   NMP  H4   HGA2       0.090000        1.0080           0
    1112 QQQ  70   NMP  H5   HGA2       0.090000        1.0080           0
    1113 QQQ  70   NMP  C4   CG3C52    -0.233000       12.0110           0
    1114 QQQ  70   NMP  H6   HGA2       0.090000        1.0080           0
    1115 QQQ  70   NMP  H7   HGA2       0.090000        1.0080           0
    1116 QQQ  70   NMP  C5   CG3C52    -0.027000       12.0110           0
    1117 QQQ  70   NMP  H8   HGA2       0.090000        1.0080           0
    1118 QQQ  70   NMP  H9   HGA2       0.090000        1.0080           0
    1119 QQQ  70   NMP  C6   CG2R53     0.286000       12.0110           0
    1120 QQQ  70   NMP  O7   OG2D1     -0.500000       15.9990           0
    1121 QQQ  71   NMP  C1   CG331     -0.161000       12.0110           0
    1122 QQQ  71   NMP  H1   HGA3       0.090000        1.0080           0
    1123 QQQ  71   NMP  H2   HGA3       0.090000        1.0080           0
    1124 QQQ  71   NMP  H3   HGA3       0.090000        1.0080           0
    1125 QQQ  71   NMP  N2   NG2R53    -0.098000       14.0070           0
    1126 QQQ  71   NMP  C3   CG3C52    -0.077000       12.0110           0
    1127 QQQ  71   NMP  H4   HGA2       0.090000        1.0080           0
    1128 QQQ  71   NMP  H5   HGA2       0.090000        1.0080           0
    1129 QQQ  71   NMP  C4   CG3C52    -0.233000       12.0110           0
    1130 QQQ  71   NMP  H6   HGA2       0.090000        1.0080           0
    1131 QQQ  71   NMP  H7   HGA2       0.090000        1.0080           0
    1132 QQQ  71   NMP  C5   CG3C52    -0.027000       12.0110           0
    1133 QQQ  71   NMP  H8   HGA2       0.090000        1.0080           0
    1134 QQQ  71   NMP  H9   HGA2       0.090000        1.0080           0
    1135 QQQ  71   NMP  C6   CG2R53     0.286000       12.0110           0
    1136 QQQ  71   NMP  O7   OG2D1     -0.500000       15.9990           0
    1137 QQQ  72   NMP  C1   CG331     -0.161000       12.0110           0
    1138 QQQ  72   NMP  H1   HGA3       0.090000        1.0080           0
    1139 QQQ  72   NMP  H2   HGA3       0.090000        1.0080           0
    1140 QQQ  72   NMP  H3   HGA3       0.090000        1.0080           0
    1141 QQQ  72   NMP  N2   NG2R53    -0.098000       14.0070           0
    1142 QQQ  72   NMP  C3   CG3C52    -0.077000       12.0110           0
    1143 QQQ  72   NMP  H4   HGA2       0.090000        1.0080           0
    1144 QQQ  72   NMP  H5   HGA2       0.090000        1.0080           0
    1145 QQQ  72   NMP  C4   CG3C52    -0.233000       12.0110           0
    1146 QQQ  72   NMP  H6   HGA2       0.090000        1.0080           0
    1147 QQQ  72   NMP  H7   HGA2       0.090000        1.0080           0
    1148 QQQ  72   NMP  C5   CG3C52    -0.027000       12.0110           0
    1149 QQQ  72   NMP  H8   HGA2       0.090000        1.0080           0
    1150 QQQ  72   NMP  H9   HGA2       0.090000        1.0080           0
    1151 QQQ  72   NMP  C6   CG2R53     0.286000       12.0110           0
    1152 QQQ  72   NMP  O7   OG2D1     -0.500000       15.9990           0
    1153 QQQ  73   NMP  C1   CG331     -0.161000       12.0110           0
    1154 QQQ  73   NMP  H1   HGA3       0.090000        1.0080           0
    1155 QQQ  73   NMP  H2   HGA3       0.090000        1.0080           0
    1156 QQQ  73   NMP  H3   HGA3       0.090000        1.0080           0
    1157 QQQ  73   NMP  N2   NG2R53    -0.098000       14.0070           0
    1158 QQQ  73   NMP  C3   CG3C52    -0.077000       12.0110           0
    1159 QQQ  73   NMP  H4   HGA2       0.090000        1.0080           0
    1160 QQQ  73   NMP  H5   HGA2       0.090000        1.0080           0
    1161 QQQ  73   NMP  C4   CG3C52    -0.233000       12.0110           0
    1162 QQQ  73   NMP  H6   HGA2       0.090000        1.0080           0
    1163 QQQ  73   NMP  H7   HGA2       0.090000        1.0080           0
    1164 QQQ  73   NMP  C5   CG3C52    -0.027000       12.0110           0
    1165 QQQ  73   NMP  H8   HGA2       0.090000        1.0080           0
    1166 QQQ  73   NMP  H9   HGA2       0.090000        1.0080           0
    1167 QQQ  73   NMP  C6   CG2R53     0.286000       12.0110           0
    1168 QQQ  73   NMP  O7   OG2D1     -0.500000       15.9990           0
    1169 QQQ  74   NMP  C1   CG331     -0.161000       12.0110           0
    1170 QQQ  74   NMP  H1   HGA3       0.090000        1.0080           0
    1171 QQQ  74   NMP  H2   HGA3       0.090000        1.0080           0
    1172 QQQ  74   NMP  H3   HGA3       0.090000        1.0080           0
    1173 QQQ  74   NMP  N2   NG2R53    -0.098000       14.0070           0
    1174 QQQ  74   NMP  C3   CG3C52    -0.077000       12.0110           0
    1175 QQQ  74   NMP  H4   HGA2       0.090000        1.0080           0
    1176 QQQ  74   NMP  H5   HGA2       0.090000        1.0080           0
    1177 QQQ  74   NMP  C4   CG3C52    -0.233000       12.0110           0
    1178 QQQ  74   NMP  H6   HGA2       0.090000        1.0080           0
    1179 QQQ  74   NMP  H7   HGA2       0.090000        1.0080           0
    1180 QQQ  74   NMP  C5   CG3C52    -0.027000       12.0110           0
    1181 QQQ  74   NMP  H8   HGA2       0.090000        1.0080           0
    1182 QQQ  74   NMP  H9   HGA2       0.090000        1.0080           0
    1183 QQQ  74   NMP  C6   CG2R53     0.286000       12.0110           0
    1184 QQQ  74   NMP  O7   OG2D1     -0.500000       15.9990           0
    1185 QQQ  75   NMP  C1   CG331     -0.161000       12.0110           0
    1186 QQQ  75   NMP  H1   HGA3       0.090000        1.0080           0
    1187 QQQ  75   NMP  H2   HGA3       0.090000        1.0080           0
    1188 QQQ  75   NMP  H3   HGA3       0.090000        1.0080           0
    1189 QQQ  75   NMP  N2   NG2R53    -0.098000       14.0070           0
    1190 QQQ  75   NMP  C3   CG3C52    -0.077000       12.0110           0
    1191 QQQ  75   NMP  H4   HGA2       0.090000        1.0080           0
    1192 QQQ  75   NMP  H5   HGA2       0.090000        1.0080           0
    1193 QQQ  75   NMP  C4   CG3C52    -0.233000       12.0110           0
    1194 QQQ  75   NMP  H6   HGA2       0.090000        1.0080           0
    1195 QQQ  75   NMP  H7   HGA2       0.090000        1.0080           0
    1196 QQQ  75   NMP  C5   CG3C52    -0.027000       12.0110           0
    1197 QQQ  75   NMP  H8   HGA2       0.090000        1.0080           0
    1198 QQQ  75   NMP  H9   HGA2       0.090000        1.0080           0
    1199 QQQ  75   NMP  C6   CG2R53     0.286000       12.0110           0
    1200 QQQ  75   NMP  O7   OG2D1     -0.500000       15.9990           0
    1201 QQQ  76   NMP  C1   CG331     -0.161000       12.0110           0
    1202 QQQ  76   NMP  H1   HGA3       0.090000        1.0080           0
    1203 QQQ  76   NMP  H2   HGA3       0.090000        1.0080           0
    1204 QQQ  76   NMP  H3   HGA3       0.090000        1.0080           0
    1205 QQQ  76   NMP  N2   NG2R53    -0.098000       14.0070           0
    1206 QQQ  76   NMP  C3   CG3C52    -0.077000       12.0110           0
    1207 QQQ  76   NMP  H4   HGA2       0.090000        1.0080           0
    1208 QQQ  76   NMP  H5   HGA2       0.090000        1.0080           0
    1209 QQQ  76   NMP  C4   CG3C52    -0.233000       12.0110           0
    1210 QQQ  76   NMP  H6   HGA2       0.090000        1.0080           0
    1211 QQQ  76   NMP  H7   HGA2       0.090000        1.0080           0
    1212 QQQ  76   NMP  C5   CG3C52    -0.027000       12.0110           0
    1213 QQQ  76   NMP  H8   HGA2       0.090000        1.0080           0
    1214 QQQ  76   NMP  H9   HGA2       0.090000        1.0080           0
    1215 QQQ  76   NMP  C6   CG2R53     0.286000       12.0110           0
    1216 QQQ  76   NMP  O7   OG2D1     -0.500000       15.9990           0
    1217 QQQ  77   NMP  C1   CG331     -0.161000       12.0110           0
    1218 QQQ  77   NMP  H1   HGA3       0.090000        1.0080           0
    1219 QQQ  77   NMP  H2   HGA3       0.090000        1.0080           0
    1220 QQQ  77   NMP  H3   HGA3       0.090000        1.0080           0
    1221 QQQ  77   NMP  N2   NG2R53    -0.098000       14.0070           0
    1222 QQQ  77   NMP  C3   CG3C52    -0.077000       12.0110           0
    1223 QQQ  77   NMP  H4   HGA2       0.090000        1.0080           0
    1224 QQQ  77   NMP  H5   HGA2       0.090000        1.0080           0
    1225 QQQ  77   NMP  C4   CG3C52    -0.233000       12.0110           0
    1226 QQQ  77   NMP  H6   HGA2       0.090000        1.0080           0
    1227 QQQ  77   NMP  H7   HGA2       0.090000        1.0080           0
    1228 QQQ  77   NMP  C5   CG3C52    -0.027000       12.0110           0
    1229 QQQ  77   NMP  H8   HGA2       0.090000        1.0080           0
    1230 QQQ  77   NMP  H9   HGA2       0.090000        1.0080           0
    1231 QQQ  77   NMP  C6   CG2R53     0.286000       12.0110           0
    1232 QQQ  77   NMP  O7   OG2D1     -0.500000       15.9990           0
    1233 QQQ  78   NMP  C1   CG331     -0.161000       12.0110           0
    1234 QQQ  78   NMP  H1   HGA3       0.090000        1.0080           0
    1235 QQQ  78   NMP  H2   HGA3       0.090000        1.0080           0
    1236 QQQ  78   NMP  H3   HGA3       0.090000        1.0080           0
    1237 QQQ  78   NMP  N2   NG2R53    -0.098000       14.0070           0
    1238 QQQ  78   NMP  C3   CG3C52    -0.077000       12.0110           0
    1239 QQQ  78   NMP  H4   HGA2       0.090000        1.0080           0
    1240 QQQ  78   NMP  H5   HGA2       0.090000        1.0080           0
    1241 QQQ  78   NMP  C4   CG3C52    -0.233000       12.0110           0
    1242 QQQ  78   NMP  H6   HGA2       0.090000        1.0080           0
    1243 QQQ  78   NMP  H7   HGA2       0.090000        1.0080           0
    1244 QQQ  78   NMP  C5   CG3C52    -0.027000       12.0110           0
    1245 QQQ  78   NMP  H8   HGA2       0.090000        1.0080           0
    1246 QQQ  78   NMP  H9   HGA2       0.090000        1.0080           0
    1247 QQQ  78   NMP  C6   CG2R53     0.286000       12.0110           0
    1248 QQQ  78   NMP  O7   OG2D1     -0.500000       15.9990           0
    1249 QQQ  79   NMP  C1   CG331     -0.161000       12.0110           0
    1250 QQQ  79   NMP  H1   HGA3       0.090000        1.0080           0
    1251 QQQ  79   NMP  H2   HGA3       0.090000        1.0080           0
    1252 QQQ  79   NMP  H3   HGA3       0.090000        1.0080           0
    1253 QQQ  79   NMP  N2   NG2R53    -0.098000       14.0070           0
    1254 QQQ  79   NMP  C3   CG3C52    -0.077000       12.0110           0
    1255 QQQ  79   NMP  H4   HGA2       0.090000        1.0080           0
    1256 QQQ  79   NMP  H5   HGA2       0.090000        1.0080           0
    1257 QQQ  79   NMP  C4   CG3C52    -0.233000       12.0110           0
    1258 QQQ  79   NMP  H6   HGA2       0.090000        1.0080           0
    1259 QQQ  79   NMP  H7   HGA2       0.090000        1.0080           0
    1260 QQQ  79   NMP  C5   CG3C52    -0.027000       12.0110           0
    1261 QQQ  79   NMP  H8   HGA2       0.090000        1.0080           0
    1262 QQQ  79   NMP  H9   HGA2       0.090000        1.0080           0
    1263 QQQ  79   NMP  C6   CG2R53     0.286000       12.0110           0
    1264 QQQ  79   NMP  O7   OG2D1     -0.500000       15.9990           0
    1265 QQQ  80   NMP  C1   CG331     -0.161000       12.0110           0
    1266 QQQ  80   NMP  H1   HGA3       0.090000        1.0080           0
    1267 QQQ  80   NMP  H2   HGA3       0.090000        1.0080           0
    1268 QQQ  80   NMP  H3   HGA3       0.090000        1.0080           0
    1269 QQQ  80   NMP  N2   NG2R53    -0.098000       14.0070           0
    1270 QQQ  80   NMP  C3   CG3C52    -0.077000       12.0110           0
    1271 QQQ  80   NMP  H4   HGA2       0.090000        1.0080           0
    1272 QQQ  80   NMP  H5   HGA2       0.090000        1.0080           0
    1273 QQQ  80   NMP  C4   CG3C52    -0.233000       12.0110           0
    1274 QQQ  80   NMP  H6   HGA2       0.090000        1.0080           0
    1275 QQQ  80   NMP  H7   HGA2       0.090000        1.0080           0
    1276 QQQ  80   NMP  C5   CG3C52    -0.027000       12.0110           0
    1277 QQQ  80   NMP  H8   HGA2       0.090000        1.0080           0
    1278 QQQ  80   NMP  H9   HGA2       0.090000        1.0080           0
    1279 QQQ  80   NMP  C6   CG2R53     0.286000       12.0110           0
    1280 QQQ  80   NMP  O7   OG2D1     -0.500000       15.9990           0
    1281 QQQ  81   NMP  C1   CG331     -0.161000       12.0110           0
    1282 QQQ  81   NMP  H1   HGA3       0.090000        1.0080           0
    1283 QQQ  81   NMP  H2   HGA3       0.090000        1.0080           0
    1284 QQQ  81   NMP  H3   HGA3       0.090000        1.0080           0
    1285 QQQ  81   NMP  N2   NG2R53    -0.098000       14.0070           0
    1286 QQQ  81   NMP  C3   CG3C52    -0.077000       12.0110           0
    1287 QQQ  81   NMP  H4   HGA2       0.090000        1.0080           0
    1288 QQQ  81   NMP  H5   HGA2       0.090000        1.0080           0
    1289 QQQ  81   NMP  C4   CG3C52    -0.233000       12.0110           0
    1290 QQQ  81   NMP  H6   HGA2       0.090000        1.0080           0
    1291 QQQ  81   NMP  H7   HGA2       0.090000        1.0080           0
    1292 QQQ  81   NMP  C5   CG3C52    -0.027000       12.0110           0
    1293 QQQ  81   NMP  H8   HGA2       0.090000        1.0080           0
    1294 QQQ  81   NMP  H9   HGA2       0.090000        1.0080           0
    1295 QQQ  81   NMP  C6   CG2R53     0.286000       12.0110           0
    1296 QQQ  81   NMP  O7   OG2D1     -0.500000       15.9990           0
    1297 QQQ  82   NMP  C1   CG331     -0.161000       12.0110           0
    1298 QQQ  82   NMP  H1   HGA3       0.090000        1.0080           0
    1299 QQQ  82   NMP  H2   HGA3       0.090000        1.0080           0
    1300 QQQ  82   NMP  H3   HGA3       0.090000        1.0080           0
    1301 QQQ  82   NMP  N2   NG2R53    -0.098000       14.0070           0
    1302 QQQ  82   NMP  C3   CG3C52    -0.077000       12.0110           0
    1303 QQQ  82   NMP  H4   HGA2       0.090000        1.0080           0
    1304 QQQ  82   NMP  H5   HGA2       0.090000        1.0080           0
    1305 QQQ  82   NMP  C4   CG3C52    -0.233000       12.0110           0
    1306 QQQ  82   NMP  H6   HGA2       0.090000        1.0080           0
    1307 QQQ  82   NMP  H7   HGA2       0.090000        1.0080           0
    1308 QQQ  82   NMP  C5   CG3C52    -0.027000       12.0110           0
    1309 QQQ  82   NMP  H8   HGA2       0.090000        1.0080           0
    1310 QQQ  82   NMP  H9   HGA2       0.090000        1.0080           0
    1311 QQQ  82   NMP  C6   CG2R53     0.286000       12.0110           0
    1312 QQQ  82   NMP  O7   OG2D1     -0.500000       15.9990           0
    1313 QQQ  83   NMP  C1   CG331     -0.161000       12.0110           0
    1314 QQQ  83   NMP  H1   HGA3       0.090000        1.0080           0
    1315 QQQ  83   NMP  H2   HGA3       0.090000        1.0080           0
    1316 QQQ  83   NMP  H3   HGA3       0.090000        1.0080           0
    1317 QQQ  83   NMP  N2   NG2R53    -0.098000       14.0070           0
    1318 QQQ  83   NMP  C3   CG3C52    -0.077000       12.0110           0
    1319 QQQ  83   NMP  H4   HGA2       0.090000        1.0080           0
    1320 QQQ  83   NMP  H5   HGA2       0.090000        1.0080           0
    1321 QQQ  83   NMP  C4   CG3C52    -0.233000       12.0110           0
    1322 QQQ  83   NMP  H6   HGA2       0.090000        1.0080           0
    1323 QQQ  83   NMP  H7   HGA2       0.090000        1.0080           0
    1324 QQQ  83   NMP  C5   CG3C52    -0.027000       12.0110           0
    1325 QQQ  83   NMP  H8   HGA2       0.090000        1.0080           0
    1326 QQQ  83   NMP  H9   HGA2       0.090000        1.0080           0
    1327 QQQ  83   NMP  C6   CG2R53     0.286000       12.0110           0
    1328 QQQ  83   NMP  O7   OG2D1     -0.500000       15.9990           0
    1329 QQQ  84   NMP  C1   CG331     -0.161000       12.0110           0
    1330 QQQ  84   NMP  H1   HGA3       0.090000        1.0080           0
    1331 QQQ  84   NMP  H2   HGA3       0.090000        1.0080           0
    1332 QQQ  84   NMP  H3   HGA3       0.090000        1.0080           0
    1333 QQQ  84   NMP  N2   NG2R53    -0.098000       14.0070           0
    1334 QQQ  84   NMP  C3   CG3C52    -0.077000       12.0110           0
    1335 QQQ  84   NMP  H4   HGA2       0.090000        1.0080           0
    1336 QQQ  84   NMP  H5   HGA2       0.090000        1.0080           0
    1337 QQQ  84   NMP  C4   CG3C52    -0.233000       12.0110           0
    1338 QQQ  84   NMP  H6   HGA2       0.090000        1.0080           0
    1339 QQQ  84   NMP  H7   HGA2       0.090000        1.0080           0
    1340 QQQ  84   NMP  C5   CG3C52    -0.027000       12.0110           0
    1341 QQQ  84   NMP  H8   HGA2       0.090000        1.0080           0
    1342 QQQ  84   NMP  H9   HGA2       0.090000        1.0080           0
    1343 QQQ  84   NMP  C6   CG2R53     0.286000       12.0110           0
    1344 QQQ  84   NMP  O7   OG2D1     -0.500000       15.9990           0
    1345 QQQ  85   NMP  C1   CG331     -0.161000       12.0110           0
    1346 QQQ  85   NMP  H1   HGA3       0.090000        1.0080           0
    1347 QQQ  85   NMP  H2   HGA3       0.090000        1.0080           0
    1348 QQQ  85   NMP  H3   HGA3       0.090000        1.0080           0
    1349 QQQ  85   NMP  N2   NG2R53    -0.098000       14.0070           0
    1350 QQQ  85   NMP  C3   CG3C52    -0.077000       12.0110           0
    1351 QQQ  85   NMP  H4   HGA2       0.090000        1.0080           0
    1352 QQQ  85   NMP  H5   HGA2       0.090000        1.0080           0
    1353 QQQ  85   NMP  C4   CG3C52    -0.233000       12.0110           0
    1354 QQQ  85   NMP  H6   HGA2       0.090000        1.0080           0
    1355 QQQ  85   NMP  H7   HGA2       0.090000        1.0080           0
    1356 QQQ  85   NMP  C5   CG3C52    -0.027000       12.0110           0
    1357 QQQ  85   NMP  H8   HGA2       0.090000        1.0080           0
    1358 QQQ  85   NMP  H9   HGA2       0.090000        1.0080           0
    1359 QQQ  85   NMP  C6   CG2R53     0.286000       12.0110           0
    1360 QQQ  85   NMP  O7   OG2D1     -0.500000       15.9990           0
    1361 QQQ  86   NMP  C1   CG331     -0.161000       12.0110           0
    1362 QQQ  86   NMP  H1   HGA3       0.090000        1.0080           0
    1363 QQQ  86   NMP  H2   HGA3       0.090000        1.0080           0
    1364 QQQ  86   NMP  H3   HGA3       0.090000        1.0080           0
    1365 QQQ  86   NMP  N2   NG2R53    -0.098000       14.0070           0
    1366 QQQ  86   NMP  C3   CG3C52    -0.077000       12.0110           0
    1367 QQQ  86   NMP  H4   HGA2       0.090000        1.0080           0
    1368 QQQ  86   NMP  H5   HGA2       0.090000        1.0080           0
    1369 QQQ  86   NMP  C4   CG3C52    -0.233000       12.0110           0
    1370 QQQ  86   NMP  H6   HGA2       0.090000        1.0080           0
    1371 QQQ  86   NMP  H7   HGA2       0.090000        1.0080           0
    1372 QQQ  86   NMP  C5   CG3C52    -0.027000       12.0110           0
    1373 QQQ  86   NMP  H8   HGA2       0.090000        1.0080           0
    1374 QQQ  86   NMP  H9   HGA2       0.090000        1.0080           0
    1375 QQQ  86   NMP  C6   CG2R53     0.286000       12.0110           0
    1376 QQQ  86   NMP  O7   OG2D1     -0.500000       15.9990           0
    1377 QQQ  87   NMP  C1   CG331     -0.161000       12.0110           0
    1378 QQQ  87   NMP  H1   HGA3       0.090000        1.0080           0
    1379 QQQ  87   NMP  H2   HGA3       0.090000        1.0080           0
    1380 QQQ  87   NMP  H3   HGA3       0.090000        1.0080           0
    1381 QQQ  87   NMP  N2   NG2R53    -0.098000       14.0070           0
    1382 QQQ  87   NMP  C3   CG3C52    -0.077000       12.0110           0
    1383 QQQ  87   NMP  H4   HGA2       0.090000        1.0080           0
    1384 QQQ  87   NMP  H5   HGA2       0.090000        1.0080           0
    1385 QQQ  87   NMP  C4   CG3C52    -0.233000       12.0110           0
    1386 QQQ  87   NMP  H6   HGA2       0.090000        1.0080           0
    1387 QQQ  87   NMP  H7   HGA2       0.090000        1.0080           0
    1388 QQQ  87   NMP  C5   CG3C52    -0.027000       12.0110           0
    1389 QQQ  87   NMP  H8   HGA2       0.090000        1.0080           0
    1390 QQQ  87   NMP  H9   HGA2       0.090000        1.0080           0
    1391 QQQ  87   NMP  C6   CG2R53     0.286000       12.0110           0
    1392 QQQ  87   NMP  O7   OG2D1     -0.500000       15.9990           0
    1393 QQQ  88   NMP  C1   CG331     -0.161000       12.0110           0
    1394 QQQ  88   NMP  H1   HGA3       0.090000        1.0080           0
    1395 QQQ  88   NMP  H2   HGA3       0.090000        1.0080           0
    1396 QQQ  88   NMP  H3   HGA3       0.090000        1.0080           0
    1397 QQQ  88   NMP  N2   NG2R53    -0.098000       14.0070           0
    1398 QQQ  88   NMP  C3   CG3C52    -0.077000       12.0110           0
    1399 QQQ  88   NMP  H4   HGA2       0.090000        1.0080           0
    1400 QQQ  88   NMP  H5   HGA2       0.090000        1.0080           0
    1401 QQQ  88   NMP  C4   CG3C52    -0.233000       12.0110           0
    1402 QQQ  88   NMP  H6   HGA2       0.090000        1.0080           0
    1403 QQQ  88   NMP  H7   HGA2       0.090000        1.0080           0
    1404 QQQ  88   NMP  C5   CG3C52    -0.027000       12.0110           0
    1405 QQQ  88   NMP  H8   HGA2       0.090000        1.0080           0
    1406 QQQ  88   NMP  H9   HGA2       0.090000        1.0080           0
    1407 QQQ  88   NMP  C6   CG2R53     0.286000       12.0110           0
    1408 QQQ  88   NMP  O7   OG2D1     -0.500000       15.9990           0
    1409 QQQ  89   NMP  C1   CG331     -0.161000       12.0110           0
    1410 QQQ  89   NMP  H1   HGA3       0.090000        1.0080           0
    1411 QQQ  89   NMP  H2   HGA3       0.090000        1.0080           0
    1412 QQQ  89   NMP  H3   HGA3       0.090000        1.0080           0
    1413 QQQ  89   NMP  N2   NG2R53    -0.098000       14.0070           0
    1414 QQQ  89   NMP  C3   CG3C52    -0.077000       12.0110           0
    1415 QQQ  89   NMP  H4   HGA2       0.090000        1.0080           0
    1416 QQQ  89   NMP  H5   HGA2       0.090000        1.0080           0
    1417 QQQ  89   NMP  C4   CG3C52    -0.233000       12.0110           0
    1418 QQQ  89   NMP  H6   HGA2       0.090000        1.0080           0
    1419 QQQ  89   NMP  H7   HGA2       0.090000        1.0080           0
    1420 QQQ  89   NMP  C5   CG3C52    -0.027000       12.0110           0
    1421 QQQ  89   NMP  H8   HGA2       0.090000        1.0080           0
    1422 QQQ  89   NMP  H9   HGA2       0.090000        1.0080           0
    1423 QQQ  89   NMP  C6   CG2R53     0.286000       12.0110           0
    1424 QQQ  89   NMP  O7   OG2D1     -0.500000       15.9990           0
    1425 QQQ  90   NMP  C1   CG331     -0.161000       12.0110           0
    1426 QQQ  90   NMP  H1   HGA3       0.090000        1.0080           0
    1427 QQQ  90   NMP  H2   HGA3       0.090000        1.0080           0
    1428 QQQ  90   NMP  H3   HGA3       0.090000        1.0080           0
    1429 QQQ  90   NMP  N2   NG2R53    -0.098000       14.0070           0
    1430 QQQ  90   NMP  C3   CG3C52    -0.077000       12.0110           0
    1431 QQQ  90   NMP  H4   HGA2       0.090000        1.0080           0
    1432 QQQ  90   NMP  H5   HGA2       0.090000        1.0080           0
    1433 QQQ  90   NMP  C4   CG3C52    -0.233000       12.0110           0
    1434 QQQ  90   NMP  H6   HGA2       0.090000        1.0080           0
    1435 QQQ  90   NMP  H7   HGA2       0.090000        1.0080           0
    1436 QQQ  90   NMP  C5   CG3C52    -0.027000       12.0110           0
    1437 QQQ  90   NMP  H8   HGA2       0.090000        1.0080           0
    1438 QQQ  90   NMP  H9   HGA2       0.090000        1.0080           0
    1439 QQQ  90   NMP  C6   CG2R53     0.286000       12.0110           0
    1440 QQQ  90   NMP  O7   OG2D1     -0.500000       15.9990           0
    1441 QQQ  91   NMP  C1   CG331     -0.161000       12.0110           0
    1442 QQQ  91   NMP  H1   HGA3       0.090000        1.0080           0
    1443 QQQ  91   NMP  H2   HGA3       0.090000        1.0080           0
    1444 QQQ  91   NMP  H3   HGA3       0.090000        1.0080           0
    1445 QQQ  91   NMP  N2   NG2R53    -0.098000       14.0070           0
    1446 QQQ  91   NMP  C3   CG3C52    -0.077000       12.0110           0
    1447 QQQ  91   NMP  H4   HGA2       0.090000        1.0080           0
    1448 QQQ  91   NMP  H5   HGA2       0.090000        1.0080           0
    1449 QQQ  91   NMP  C4   CG3C52    -0.233000       12.0110           0
    1450 QQQ  91   NMP  H6   HGA2       0.090000        1.0080           0
    1451 QQQ  91   NMP  H7   HGA2       0.090000        1.0080           0
    1452 QQQ  91   NMP  C5   CG3C52    -0.027000       12.0110           0
    1453 QQQ  91   NMP  H8   HGA2       0.090000        1.0080           0
    1454 QQQ  91   NMP  H9   HGA2       0.090000        1.0080           0
    1455 QQQ  91   NMP  C6   CG2R53     0.286000       12.0110           0
    1456 QQQ  91   NMP  O7   OG2D1     -0.500000       15.9990           0
    1457 QQQ  92   NMP  C1   CG331     -0.161000       12.0110           0
    1458 QQQ  92   NMP  H1   HGA3       0.090000        1.0080           0
    1459 QQQ  92   NMP  H2   HGA3       0.090000        1.0080           0
    1460 QQQ  92   NMP  H3   HGA3       0.090000        1.0080           0
    1461 QQQ  92   NMP  N2   NG2R53    -0.098000       14.0070           0
    1462 QQQ  92   NMP  C3   CG3C52    -0.077000       12.0110           0
    1463 QQQ  92   NMP  H4   HGA2       0.090000        1.0080           0
    1464 QQQ  92   NMP  H5   HGA2       0.090000        1.0080           0
    1465 QQQ  92   NMP  C4   CG3C52    -0.233000       12.0110           0
    1466 QQQ  92   NMP  H6   HGA2       0.090000        1.0080           0
    1467 QQQ  92   NMP  H7   HGA2       0.090000        1.0080           0
    1468 QQQ  92   NMP  C5   CG3C52    -0.027000       12.0110           0
    1469 QQQ  92   NMP  H8   HGA2       0.090000        1.0080           0
    1470 QQQ  92   NMP  H9   HGA2       0.090000        1.0080           0
    1471 QQQ  92   NMP  C6   CG2R53     0.286000       12.0110           0
    1472 QQQ  92   NMP  O7   OG2D1     -0.500000       15.9990           0
    1473 QQQ  93   NMP  C1   CG331     -0.161000       12.0110           0
    1474 QQQ  93   NMP  H1   HGA3       0.090000        1.0080           0
    1475 QQQ  93   NMP  H2   HGA3       0.090000        1.0080           0
    1476 QQQ  93   NMP  H3   HGA3       0.090000        1.0080           0
    1477 QQQ  93   NMP  N2   NG2R53    -0.098000       14.0070           0
    1478 QQQ  93   NMP  C3   CG3C52    -0.077000       12.0110           0
    1479 QQQ  93   NMP  H4   HGA2       0.090000        1.0080           0
    1480 QQQ  93   NMP  H5   HGA2       0.090000        1.0080           0
    1481 QQQ  93   NMP  C4   CG3C52    -0.233000       12.0110           0
    1482 QQQ  93   NMP  H6   HGA2       0.090000        1.0080           0
    1483 QQQ  93   NMP  H7   HGA2       0.090000        1.0080           0
    1484 QQQ  93   NMP  C5   CG3C52    -0.027000       12.0110           0
    1485 QQQ  93   NMP  H8   HGA2       0.090000        1.0080           0
    1486 QQQ  93   NMP  H9   HGA2       0.090000        1.0080           0
    1487 QQQ  93   NMP  C6   CG2R53     0.286000       12.0110           0
    1488 QQQ  93   NMP  O7   OG2D1     -0.500000       15.9990           0
    1489 QQQ  94   NMP  C1   CG331     -0.161000       12.0110           0
    1490 QQQ  94   NMP  H1   HGA3       0.090000        1.0080           0
    1491 QQQ  94   NMP  H2   HGA3       0.090000        1.0080           0
    1492 QQQ  94   NMP  H3   HGA3       0.090000        1.0080           0
    1493 QQQ  94   NMP  N2   NG2R53    -0.098000       14.0070           0
    1494 QQQ  94   NMP  C3   CG3C52    -0.077000       12.0110           0
    1495 QQQ  94   NMP  H4   HGA2       0.090000        1.0080           0
    1496 QQQ  94   NMP  H5   HGA2       0.090000        1.0080           0
    1497 QQQ  94   NMP  C4   CG3C52    -0.233000       12.0110           0
    1498 QQQ  94   NMP  H6   HGA2       0.090000        1.0080           0
    1499 QQQ  94   NMP  H7   HGA2       0.090000        1.0080           0
    1500 QQQ  94   NMP  C5   CG3C52    -0.027000       12.0110           0
    1501 QQQ  94   NMP  H8   HGA2       0.090000        1.0080           0
    1502 QQQ  94   NMP  H9   HGA2       0.090000        1.0080           0
    1503 QQQ  94   NMP  C6   CG2R53     0.286000       12.0110           0
    1504 QQQ  94   NMP  O7   OG2D1     -0.500000       15.9990           0
    1505 QQQ  95   NMP  C1   CG331     -0.161000       12.0110           0
    1506 QQQ  95   NMP  H1   HGA3       0.090000        1.0080           0
    1507 QQQ  95   NMP  H2   HGA3       0.090000        1.0080           0
    1508 QQQ  95   NMP  H3   HGA3       0.090000        1.0080           0
    1509 QQQ  95   NMP  N2   NG2R53    -0.098000       14.0070           0
    1510 QQQ  95   NMP  C3   CG3C52    -0.077000       12.0110           0
    1511 QQQ  95   NMP  H4   HGA2       0.090000        1.0080           0
    1512 QQQ  95   NMP  H5   HGA2       0.090000        1.0080           0
    1513 QQQ  95   NMP  C4   CG3C52    -0.233000       12.0110           0
    1514 QQQ  95   NMP  H6   HGA2       0.090000        1.0080           0
    1515 QQQ  95   NMP  H7   HGA2       0.090000        1.0080           0
    1516 QQQ  95   NMP  C5   CG3C52    -0.027000       12.0110           0
    1517 QQQ  95   NMP  H8   HGA2       0.090000        1.0080           0
    1518 QQQ  95   NMP  H9   HGA2       0.090000        1.0080           0
    1519 QQQ  95   NMP  C6   CG2R53     0.286000       12.0110           0
    1520 QQQ  95   NMP  O7   OG2D1     -0.500000       15.9990           0
    1521 QQQ  96   NMP  C1   CG331     -0.161000       12.0110           0
    1522 QQQ  96   NMP  H1   HGA3       0.090000        1.0080           0
    1523 QQQ  96   NMP  H2   HGA3       0.090000        1.0080           0
    1524 QQQ  96   NMP  H3   HGA3       0.090000        1.0080           0
    1525 QQQ  96   NMP  N2   NG2R53    -0.098000       14.0070           0
    1526 QQQ  96   NMP  C3   CG3C52    -0.077000       12.0110           0
    1527 QQQ  96   NMP  H4   HGA2       0.090000        1.0080           0
    1528 QQQ  96   NMP  H5   HGA2       0.090000        1.0080           0
    1529 QQQ  96   NMP  C4   CG3C52    -0.233000       12.0110           0
    1530 QQQ  96   NMP  H6   HGA2       0.090000        1.0080           0
    1531 QQQ  96   NMP  H7   HGA2       0.090000        1.0080           0
    1532 QQQ  96   NMP  C5   CG3C52    -0.027000       12.0110           0
    1533 QQQ  96   NMP  H8   HGA2       0.090000        1.0080           0
    1534 QQQ  96   NMP  H9   HGA2       0.090000        1.0080           0
    1535 QQQ  96   NMP  C6   CG2R53     0.286000       12.0110           0
    1536 QQQ  96   NMP  O7   OG2D1     -0.500000       15.9990           0
    1537 QQQ  97   NMP  C1   CG331     -0.161000       12.0110           0
    1538 QQQ  97   NMP  H1   HGA3       0.090000        1.0080           0
    1539 QQQ  97   NMP  H2   HGA3       0.090000        1.0080           0
    1540 QQQ  97   NMP  H3   HGA3       0.090000        1.0080           0
    1541 QQQ  97   NMP  N2   NG2R53    -0.098000       14.0070           0
    1542 QQQ  97   NMP  C3   CG3C52    -0.077000       12.0110           0
    1543 QQQ  97   NMP  H4   HGA2       0.090000        1.0080           0
    1544 QQQ  97   NMP  H5   HGA2       0.090000        1.0080           0
    1545 QQQ  97   NMP  C4   CG3C52    -0.233000       12.0110           0
    1546 QQQ  97   NMP  H6   HGA2       0.090000        1.0080           0
    1547 QQQ  97   NMP  H7   HGA2       0.090000        1.0080           0
    1548 QQQ  97   NMP  C5   CG3C52    -0.027000       12.0110           0
    1549 QQQ  97   NMP  H8   HGA2       0.090000        1.0080           0
    1550 QQQ  97   NMP  H9   HGA2       0.090000        1.0080           0
    1551 QQQ  97   NMP  C6   CG2R53     0.286000       12.0110           0
    1552 QQQ  97   NMP  O7   OG2D1     -0.500000       15.9990           0
    1553 QQQ  98   NMP  C1   CG331     -0.161000       12.0110           0
    1554 QQQ  98   NMP  H1   HGA3       0.090000        1.0080           0
    1555 QQQ  98   NMP  H2   HGA3       0.090000        1.0080           0
    1556 QQQ  98   NMP  H3   HGA3       0.090000        1.0080           0
    1557 QQQ  98   NMP  N2   NG2R53    -0.098000       14.0070           0
    1558 QQQ  98   NMP  C3   CG3C52    -0.077000       12.0110           0
    1559 QQQ  98   NMP  H4   HGA2       0.090000        1.0080           0
    1560 QQQ  98   NMP  H5   HGA2       0.090000        1.0080           0
    1561 QQQ  98   NMP  C4   CG3C52    -0.233000       12.0110           0
    1562 QQQ  98   NMP  H6   HGA2       0.090000        1.0080           0
    1563 QQQ  98   NMP  H7   HGA2       0.090000        1.0080           0
    1564 QQQ  98   NMP  C5   CG3C52    -0.027000       12.0110           0
    1565 QQQ  98   NMP  H8   HGA2       0.090000        1.0080           0
    1566 QQQ  98   NMP  H9   HGA2       0.090000        1.0080           0
    1567 QQQ  98   NMP  C6   CG2R53     0.286000       12.0110           0
    1568 QQQ  98   NMP  O7   OG2D1     -0.500000       15.9990           0
    1569 QQQ  99   NMP  C1   CG331     -0.161000       12.0110           0
    1570 QQQ  99   NMP  H1   HGA3       0.090000        1.0080           0
    1571 QQQ  99   NMP  H2   HGA3       0.090000        1.0080           0
    1572 QQQ  99   NMP  H3   HGA3       0.090000        1.0080           0
    1573 QQQ  99   NMP  N2   NG2R53    -0.098000       14.0070           0
    1574 QQQ  99   NMP  C3   CG3C52    -0.077000       12.0110           0
    1575 QQQ  99   NMP  H4   HGA2       0.090000        1.0080           0
    1576 QQQ  99   NMP  H5   HGA2       0.090000        1.0080           0
    1577 QQQ  99   NMP  C4   CG3C52    -0.233000       12.0110           0
    1578 QQQ  99   NMP  H6   HGA2       0.090000        1.0080           0
    1579 QQQ  99   NMP  H7   HGA2       0.090000        1.0080           0
    1580 QQQ  99   NMP  C5   CG3C52    -0.027000       12.0110           0
    1581 QQQ  99   NMP  H8   HGA2       0.090000        1.0080           0
    1582 QQQ  99   NMP  H9   HGA2       0.090000        1.0080           0
    1583 QQQ  99   NMP  C6   CG2R53     0.286000       12.0110           0
    1584 QQQ  99   NMP  O7   OG2D1     -0.500000       15.9990           0
    1585 QQQ  100  NMP  C1   CG331     -0.161000       12.0110           0
    1586 QQQ  100  NMP  H1   HGA3       0.090000        1.0080           0
    1587 QQQ  100  NMP  H2   HGA3       0.090000        1.0080           0
    1588 QQQ  100  NMP  H3   HGA3       0.090000        1.0080           0
    1589 QQQ  100  NMP  N2   NG2R53    -0.098000       14.0070           0
    1590 QQQ  100  NMP  C3   CG3C52    -0.077000       12.0110           0
    1591 QQQ  100  NMP  H4   HGA2       0.090000        1.0080           0
    1592 QQQ  100  NMP  H5   HGA2       0.090000        1.0080           0
    1593 QQQ  100  NMP  C4   CG3C52    -0.233000       12.0110           0
    1594 QQQ  100  NMP  H6   HGA2       0.090000        1.0080           0
    1595 QQQ  100  NMP  H7   HGA2       0.090000        1.0080           0
    1596 QQQ  100  NMP  C5   CG3C52    -0.027000       12.0110           0
    1597 QQQ  100  NMP  H8   HGA2       0.090000        1.0080           0
    1598 QQQ  100  NMP  H9   HGA2       0.090000        1.0080           0
    1599 QQQ  100  NMP  C6   CG2R53     0.286000       12.0110           0
    1600 QQQ  100  NMP  O7   OG2D1     -0.500000       15.9990           0
    1601 QQQ  101  NMP  C1   CG331     -0.161000       12.0110           0
    1602 QQQ  101  NMP  H1   HGA3       0.090000        1.0080           0
    1603 QQQ  101  NMP  H2   HGA3       0.090000        1.0080           0
    1604 QQQ  101  NMP  H3   HGA3       0.090000        1.0080           0
    1605 QQQ  101  NMP  N2   NG2R53    -0.098000       14.0070           0
    1606 QQQ  101  NMP  C3   CG3C52    -0.077000       12.0110           0
    1607 QQQ  101  NMP  H4   HGA2       0.090000        1.0080           0
    1608 QQQ  101  NMP  H5   HGA2       0.090000        1.0080           0
    1609 QQQ  101  NMP  C4   CG3C52    -0.233000       12.0110           0
    1610 QQQ  101  NMP  H6   HGA2       0.090000        1.0080           0
    1611 QQQ  101  NMP  H7   HGA2       0.090000        1.0080           0
    1612 QQQ  101  NMP  C5   CG3C52    -0.027000       12.0110           0
    1613 QQQ  101  NMP  H8   HGA2       0.090000        1.0080           0
    1614 QQQ  101  NMP  H9   HGA2       0.090000        1.0080           0
    1615 QQQ  101  NMP  C6   CG2R53     0.286000       12.0110           0
    1616 QQQ  101  NMP  O7   OG2D1     -0.500000       15.9990           0
    1617 QQQ  102  NMP  C1   CG331     -0.161000       12.0110           0
    1618 QQQ  102  NMP  H1   HGA3       0.090000        1.0080           0
    1619 QQQ  102  NMP  H2   HGA3       0.090000        1.0080           0
    1620 QQQ  102  NMP  H3   HGA3       0.090000        1.0080           0
    1621 QQQ  102  NMP  N2   NG2R53    -0.098000       14.0070           0
    1622 QQQ  102  NMP  C3   CG3C52    -0.077000       12.0110           0
    1623 QQQ  102  NMP  H4   HGA2       0.090000        1.0080           0
    1624 QQQ  102  NMP  H5   HGA2       0.090000        1.0080           0
    1625 QQQ  102  NMP  C4   CG3C52    -0.233000       12.0110           0
    1626 QQQ  102  NMP  H6   HGA2       0.090000        1.0080           0
    1627 QQQ  102  NMP  H7   HGA2       0.090000        1.0080           0
    1628 QQQ  102  NMP  C5   CG3C52    -0.027000       12.0110           0
    1629 QQQ  102  NMP  H8   HGA2       0.090000        1.0080           0
    1630 QQQ  102  NMP  H9   HGA2       0.090000        1.0080           0
    1631 QQQ  102  NMP  C6   CG2R53     0.286000       12.0110           0
    1632 QQQ  102  NMP  O7   OG2D1     -0.500000       15.9990           0
    1633 QQQ  103  NMP  C1   CG331     -0.161000       12.0110           0
    1634 QQQ  103  NMP  H1   HGA3       0.090000        1.0080           0
    1635 QQQ  103  NMP  H2   HGA3       0.090000        1.0080           0
    1636 QQQ  103  NMP  H3   HGA3       0.090000        1.0080           0
    1637 QQQ  103  NMP  N2   NG2R53    -0.098000       14.0070           0
    1638 QQQ  103  NMP  C3   CG3C52    -0.077000       12.0110           0
    1639 QQQ  103  NMP  H4   HGA2       0.090000        1.0080           0
    1640 QQQ  103  NMP  H5   HGA2       0.090000        1.0080           0
    1641 QQQ  103  NMP  C4   CG3C52    -0.233000       12.0110           0
    1642 QQQ  103  NMP  H6   HGA2       0.090000        1.0080           0
    1643 QQQ  103  NMP  H7   HGA2       0.090000        1.0080           0
    1644 QQQ  103  NMP  C5   CG3C52    -0.027000       12.0110           0
    1645 QQQ  103  NMP  H8   HGA2       0.090000        1.0080           0
    1646 QQQ  103  NMP  H9   HGA2       0.090000        1.0080           0
    1647 QQQ  103  NMP  C6   CG2R53     0.286000       12.0110           0
    1648 QQQ  103  NMP  O7   OG2D1     -0.500000       15.9990           0
    1649 QQQ  104  NMP  C1   CG331     -0.161000       12.0110           0
    1650 QQQ  104  NMP  H1   HGA3       0.090000        1.0080           0
    1651 QQQ  104  NMP  H2   HGA3       0.090000        1.0080           0
    1652 QQQ  104  NMP  H3   HGA3       0.090000        1.0080           0
    1653 QQQ  104  NMP  N2   NG2R53    -0.098000       14.0070           0
    1654 QQQ  104  NMP  C3   CG3C52    -0.077000       12.0110           0
    1655 QQQ  104  NMP  H4   HGA2       0.090000        1.0080           0
    1656 QQQ  104  NMP  H5   HGA2       0.090000        1.0080           0
    1657 QQQ  104  NMP  C4   CG3C52    -0.233000       12.0110           0
    1658 QQQ  104  NMP  H6   HGA2       0.090000        1.0080           0
    1659 QQQ  104  NMP  H7   HGA2       0.090000        1.0080           0
    1660 QQQ  104  NMP  C5   CG3C52    -0.027000       12.0110           0
    1661 QQQ  104  NMP  H8   HGA2       0.090000        1.0080           0
    1662 QQQ  104  NMP  H9   HGA2       0.090000        1.0080           0
    1663 QQQ  104  NMP  C6   CG2R53     0.286000       12.0110           0
    1664 QQQ  104  NMP  O7   OG2D1     -0.500000       15.9990           0
    1665 QQQ  105  NMP  C1   CG331     -0.161000       12.0110           0
    1666 QQQ  105  NMP  H1   HGA3       0.090000        1.0080           0
    1667 QQQ  105  NMP  H2   HGA3       0.090000        1.0080           0
    1668 QQQ  105  NMP  H3   HGA3       0.090000        1.0080           0
    1669 QQQ  105  NMP  N2   NG2R53    -0.098000       14.0070           0
    1670 QQQ  105  NMP  C3   CG3C52    -0.077000       12.0110           0
    1671 QQQ  105  NMP  H4   HGA2       0.090000        1.0080           0
    1672 QQQ  105  NMP  H5   HGA2       0.090000        1.0080           0
    1673 QQQ  105  NMP  C4   CG3C52    -0.233000       12.0110           0
    1674 QQQ  105  NMP  H6   HGA2       0.090000        1.0080           0
    1675 QQQ  105  NMP  H7   HGA2       0.090000        1.0080           0
    1676 QQQ  105  NMP  C5   CG3C52    -0.027000       12.0110           0
    1677 QQQ  105  NMP  H8   HGA2       0.090000        1.0080           0
    1678 QQQ  105  NMP  H9   HGA2       0.090000        1.0080           0
    1679 QQQ  105  NMP  C6   CG2R53     0.286000       12.0110           0
    1680 QQQ  105  NMP  O7   OG2D1     -0.500000       15.9990           0
    1681 QQQ  106  NMP  C1   CG331     -0.161000       12.0110           0
    1682 QQQ  106  NMP  H1   HGA3       0.090000        1.0080           0
    1683 QQQ  106  NMP  H2   HGA3       0.090000        1.0080           0
    1684 QQQ  106  NMP  H3   HGA3       0.090000        1.0080           0
    1685 QQQ  106  NMP  N2   NG2R53    -0.098000       14.0070           0
    1686 QQQ  106  NMP  C3   CG3C52    -0.077000       12.0110           0
    1687 QQQ  106  NMP  H4   HGA2       0.090000        1.0080           0
    1688 QQQ  106  NMP  H5   HGA2       0.090000        1.0080           0
    1689 QQQ  106  NMP  C4   CG3C52    -0.233000       12.0110           0
    1690 QQQ  106  NMP  H6   HGA2       0.090000        1.0080           0
    1691 QQQ  106  NMP  H7   HGA2       0.090000        1.0080           0
    1692 QQQ  106  NMP  C5   CG3C52    -0.027000       12.0110           0
    1693 QQQ  106  NMP  H8   HGA2       0.090000        1.0080           0
    1694 QQQ  106  NMP  H9   HGA2       0.090000        1.0080           0
    1695 QQQ  106  NMP  C6   CG2R53     0.286000       12.0110           0
    1696 QQQ  106  NMP  O7   OG2D1     -0.500000       15.9990           0
    1697 QQQ  107  NMP  C1   CG331     -0.161000       12.0110           0
    1698 QQQ  107  NMP  H1   HGA3       0.090000        1.0080           0
    1699 QQQ  107  NMP  H2   HGA3       0.090000        1.0080           0
    1700 QQQ  107  NMP  H3   HGA3       0.090000        1.0080           0
    1701 QQQ  107  NMP  N2   NG2R53    -0.098000       14.0070           0
    1702 QQQ  107  NMP  C3   CG3C52    -0.077000       12.0110           0
    1703 QQQ  107  NMP  H4   HGA2       0.090000        1.0080           0
    1704 QQQ  107  NMP  H5   HGA2       0.090000        1.0080           0
    1705 QQQ  107  NMP  C4   CG3C52    -0.233000       12.0110           0
    1706 QQQ  107  NMP  H6   HGA2       0.090000        1.0080           0
    1707 QQQ  107  NMP  H7   HGA2       0.090000        1.0080           0
    1708 QQQ  107  NMP  C5   CG3C52    -0.027000       12.0110           0
    1709 QQQ  107  NMP  H8   HGA2       0.090000        1.0080           0
    1710 QQQ  107  NMP  H9   HGA2       0.090000        1.0080           0
    1711 QQQ  107  NMP  C6   CG2R53     0.286000       12.0110           0
    1712 QQQ  107  NMP  O7   OG2D1     -0.500000       15.9990           0
    1713 QQQ  108  NMP  C1   CG331     -0.161000       12.0110           0
    1714 QQQ  108  NMP  H1   HGA3       0.090000        1.0080           0
    1715 QQQ  108  NMP  H2   HGA3       0.090000        1.0080           0
    1716 QQQ  108  NMP  H3   HGA3       0.090000        1.0080           0
    1717 QQQ  108  NMP  N2   NG2R53    -0.098000       14.0070           0
    1718 QQQ  108  NMP  C3   CG3C52    -0.077000       12.0110           0
    1719 QQQ  108  NMP  H4   HGA2       0.090000        1.0080           0
    1720 QQQ  108  NMP  H5   HGA2       0.090000        1.0080           0
    1721 QQQ  108  NMP  C4   CG3C52    -0.233000       12.0110           0
    1722 QQQ  108  NMP  H6   HGA2       0.090000        1.0080           0
    1723 QQQ  108  NMP  H7   HGA2       0.090000        1.0080           0
    1724 QQQ  108  NMP  C5   CG3C52    -0.027000       12.0110           0
    1725 QQQ  108  NMP  H8   HGA2       0.090000        1.0080           0
    1726 QQQ  108  NMP  H9   HGA2       0.090000        1.0080           0
    1727 QQQ  108  NMP  C6   CG2R53     0.286000       12.0110           0
    1728 QQQ  108  NMP  O7   OG2D1     -0.500000       15.9990           0
    1729 QQQ  109  NMP  C1   CG331     -0.161000       12.0110           0
    1730 QQQ  109  NMP  H1   HGA3       0.090000        1.0080           0
    1731 QQQ  109  NMP  H2   HGA3       0.090000        1.0080           0
    1732 QQQ  109  NMP  H3   HGA3       0.090000        1.0080           0
    1733 QQQ  109  NMP  N2   NG2R53    -0.098000       14.0070           0
    1734 QQQ  109  NMP  C3   CG3C52    -0.077000       12.0110           0
    1735 QQQ  109  NMP  H4   HGA2       0.090000        1.0080           0
    1736 QQQ  109  NMP  H5   HGA2       0.090000        1.0080           0
    1737 QQQ  109  NMP  C4   CG3C52    -0.233000       12.0110           0
    1738 QQQ  109  NMP  H6   HGA2       0.090000        1.0080           0
    1739 QQQ  109  NMP  H7   HGA2       0.090000        1.0080           0
    1740 QQQ  109  NMP  C5   CG3C52    -0.027000       12.0110           0
    1741 QQQ  109  NMP  H8   HGA2       0.090000        1.0080           0
    1742 QQQ  109  NMP  H9   HGA2       0.090000        1.0080           0
    1743 QQQ  109  NMP  C6   CG2R53     0.286000       12.0110           0
    1744 QQQ  109  NMP  O7   OG2D1     -0.500000       15.9990           0
    1745 QQQ  110  NMP  C1   CG331     -0.161000       12.0110           0
    1746 QQQ  110  NMP  H1   HGA3       0.090000        1.0080           0
    1747 QQQ  110  NMP  H2   HGA3       0.090000        1.0080           0
    1748 QQQ  110  NMP  H3   HGA3       0.090000        1.0080           0
    1749 QQQ  110  NMP  N2   NG2R53    -0.098000       14.0070           0
    1750 QQQ  110  NMP  C3   CG3C52    -0.077000       12.0110           0
    1751 QQQ  110  NMP  H4   HGA2       0.090000        1.0080           0
    1752 QQQ  110  NMP  H5   HGA2       0.090000        1.0080           0
    1753 QQQ  110  NMP  C4   CG3C52    -0.233000       12.0110           0
    1754 QQQ  110  NMP  H6   HGA2       0.090000        1.0080           0
    1755 QQQ  110  NMP  H7   HGA2       0.090000        1.0080           0
    1756 QQQ  110  NMP  C5   CG3C52    -0.027000       12.0110           0
    1757 QQQ  110  NMP  H8   HGA2       0.090000        1.0080           0
    1758 QQQ  110  NMP  H9   HGA2       0.090000        1.0080           0
    1759 QQQ  110  NMP  C6   CG2R53     0.286000       12.0110           0
    1760 QQQ  110  NMP  O7   OG2D1     -0.500000       15.9990           0
    1761 QQQ  111  NMP  C1   CG331     -0.161000       12.0110           0
    1762 QQQ  111  NMP  H1   HGA3       0.090000        1.0080           0
    1763 QQQ  111  NMP  H2   HGA3       0.090000        1.0080           0
    1764 QQQ  111  NMP  H3   HGA3       0.090000        1.0080           0
    1765 QQQ  111  NMP  N2   NG2R53    -0.098000       14.0070           0
    1766 QQQ  111  NMP  C3   CG3C52    -0.077000       12.0110           0
    1767 QQQ  111  NMP  H4   HGA2       0.090000        1.0080           0
    1768 QQQ  111  NMP  H5   HGA2       0.090000        1.0080           0
    1769 QQQ  111  NMP  C4   CG3C52    -0.233000       12.0110           0
    1770 QQQ  111  NMP  H6   HGA2       0.090000        1.0080           0
    1771 QQQ  111  NMP  H7   HGA2       0.090000        1.0080           0
    1772 QQQ  111  NMP  C5   CG3C52    -0.027000       12.0110           0
    1773 QQQ  111  NMP  H8   HGA2       0.090000        1.0080           0
    1774 QQQ  111  NMP  H9   HGA2       0.090000        1.0080           0
    1775 QQQ  111  NMP  C6   CG2R53     0.286000       12.0110           0
    1776 QQQ  111  NMP  O7   OG2D1     -0.500000       15.9990           0
    1777 QQQ  112  NMP  C1   CG331     -0.161000       12.0110           0
    1778 QQQ  112  NMP  H1   HGA3       0.090000        1.0080           0
    1779 QQQ  112  NMP  H2   HGA3       0.090000        1.0080           0
    1780 QQQ  112  NMP  H3   HGA3       0.090000        1.0080           0
    1781 QQQ  112  NMP  N2   NG2R53    -0.098000       14.0070           0
    1782 QQQ  112  NMP  C3   CG3C52    -0.077000       12.0110           0
    1783 QQQ  112  NMP  H4   HGA2       0.090000        1.0080           0
    1784 QQQ  112  NMP  H5   HGA2       0.090000        1.0080           0
    1785 QQQ  112  NMP  C4   CG3C52    -0.233000       12.0110           0
    1786 QQQ  112  NMP  H6   HGA2       0.090000        1.0080           0
    1787 QQQ  112  NMP  H7   HGA2       0.090000        1.0080           0
    1788 QQQ  112  NMP  C5   CG3C52    -0.027000       12.0110           0
    1789 QQQ  112  NMP  H8   HGA2       0.090000        1.0080           0
    1790 QQQ  112  NMP  H9   HGA2       0.090000        1.0080           0
    1791 QQQ  112  NMP  C6   CG2R53     0.286000       12.0110           0
    1792 QQQ  112  NMP  O7   OG2D1     -0.500000       15.9990           0
    1793 QQQ  113  NMP  C1   CG331     -0.161000       12.0110           0
    1794 QQQ  113  NMP  H1   HGA3       0.090000        1.0080           0
    1795 QQQ  113  NMP  H2   HGA3       0.090000        1.0080           0
    1796 QQQ  113  NMP  H3   HGA3       0.090000        1.0080           0
    1797 QQQ  113  NMP  N2   NG2R53    -0.098000       14.0070           0
    1798 QQQ  113  NMP  C3   CG3C52    -0.077000       12.0110           0
    1799 QQQ  113  NMP  H4   HGA2       0.090000        1.0080           0
    1800 QQQ  113  NMP  H5   HGA2       0.090000        1.0080           0
    1801 QQQ  113  NMP  C4   CG3C52    -0.233000       12.0110           0
    1802 QQQ  113  NMP  H6   HGA2       0.090000        1.0080           0
    1803 QQQ  113  NMP  H7   HGA2       0.090000        1.0080           0
    1804 QQQ  113  NMP  C5   CG3C52    -0.027000       12.0110           0
    1805 QQQ  113  NMP  H8   HGA2       0.090000        1.0080           0
    1806 QQQ  113  NMP  H9   HGA2       0.090000        1.0080           0
    1807 QQQ  113  NMP  C6   CG2R53     0.286000       12.0110           0
    1808 QQQ  113  NMP  O7   OG2D1     -0.500000       15.9990           0
    1809 QQQ  114  NMP  C1   CG331     -0.161000       12.0110           0
    1810 QQQ  114  NMP  H1   HGA3       0.090000        1.0080           0
    1811 QQQ  114  NMP  H2   HGA3       0.090000        1.0080           0
    1812 QQQ  114  NMP  H3   HGA3       0.090000        1.0080           0
    1813 QQQ  114  NMP  N2   NG2R53    -0.098000       14.0070           0
    1814 QQQ  114  NMP  C3   CG3C52    -0.077000       12.0110           0
    1815 QQQ  114  NMP  H4   HGA2       0.090000        1.0080           0
    1816 QQQ  114  NMP  H5   HGA2       0.090000        1.0080           0
    1817 QQQ  114  NMP  C4   CG3C52    -0.233000       12.0110           0
    1818 QQQ  114  NMP  H6   HGA2       0.090000        1.0080           0
    1819 QQQ  114  NMP  H7   HGA2       0.090000        1.0080           0
    1820 QQQ  114  NMP  C5   CG3C52    -0.027000       12.0110           0
    1821 QQQ  114  NMP  H8   HGA2       0.090000        1.0080           0
    1822 QQQ  114  NMP  H9   HGA2       0.090000        1.0080           0
    1823 QQQ  114  NMP  C6   CG2R53     0.286000       12.0110           0
    1824 QQQ  114  NMP  O7   OG2D1     -0.500000       15.9990           0
    1825 QQQ  115  NMP  C1   CG331     -0.161000       12.0110           0
    1826 QQQ  115  NMP  H1   HGA3       0.090000        1.0080           0
    1827 QQQ  115  NMP  H2   HGA3       0.090000        1.0080           0
    1828 QQQ  115  NMP  H3   HGA3       0.090000        1.0080           0
    1829 QQQ  115  NMP  N2   NG2R53    -0.098000       14.0070           0
    1830 QQQ  115  NMP  C3   CG3C52    -0.077000       12.0110           0
    1831 QQQ  115  NMP  H4   HGA2       0.090000        1.0080           0
    1832 QQQ  115  NMP  H5   HGA2       0.090000        1.0080           0
    1833 QQQ  115  NMP  C4   CG3C52    -0.233000       12.0110           0
    1834 QQQ  115  NMP  H6   HGA2       0.090000        1.0080           0
    1835 QQQ  115  NMP  H7   HGA2       0.090000        1.0080           0
    1836 QQQ  115  NMP  C5   CG3C52    -0.027000       12.0110           0
    1837 QQQ  115  NMP  H8   HGA2       0.090000        1.0080           0
    1838 QQQ  115  NMP  H9   HGA2       0.090000        1.0080           0
    1839 QQQ  115  NMP  C6   CG2R53     0.286000       12.0110           0
    1840 QQQ  115  NMP  O7   OG2D1     -0.500000       15.9990           0
    1841 QQQ  116  NMP  C1   CG331     -0.161000       12.0110           0
    1842 QQQ  116  NMP  H1   HGA3       0.090000        1.0080           0
    1843 QQQ  116  NMP  H2   HGA3       0.090000        1.0080           0
    1844 QQQ  116  NMP  H3   HGA3       0.090000        1.0080           0
    1845 QQQ  116  NMP  N2   NG2R53    -0.098000       14.0070           0
    1846 QQQ  116  NMP  C3   CG3C52    -0.077000       12.0110           0
    1847 QQQ  116  NMP  H4   HGA2       0.090000        1.0080           0
    1848 QQQ  116  NMP  H5   HGA2       0.090000        1.0080           0
    1849 QQQ  116  NMP  C4   CG3C52    -0.233000       12.0110           0
    1850 QQQ  116  NMP  H6   HGA2       0.090000        1.0080           0
    1851 QQQ  116  NMP  H7   HGA2       0.090000        1.0080           0
    1852 QQQ  116  NMP  C5   CG3C52    -0.027000       12.0110           0
    1853 QQQ  116  NMP  H8   HGA2       0.090000        1.0080           0
    1854 QQQ  116  NMP  H9   HGA2       0.090000        1.0080           0
    1855 QQQ  116  NMP  C6   CG2R53     0.286000       12.0110           0
    1856 QQQ  116  NMP  O7   OG2D1     -0.500000       15.9990           0
    1857 QQQ  117  NMP  C1   CG331     -0.161000       12.0110           0
    1858 QQQ  117  NMP  H1   HGA3       0.090000        1.0080           0
    1859 QQQ  117  NMP  H2   HGA3       0.090000        1.0080           0
    1860 QQQ  117  NMP  H3   HGA3       0.090000        1.0080           0
    1861 QQQ  117  NMP  N2   NG2R53    -0.098000       14.0070           0
    1862 QQQ  117  NMP  C3   CG3C52    -0.077000       12.0110           0
    1863 QQQ  117  NMP  H4   HGA2       0.090000        1.0080           0
    1864 QQQ  117  NMP  H5   HGA2       0.090000        1.0080           0
    1865 QQQ  117  NMP  C4   CG3C52    -0.233000       12.0110           0
    1866 QQQ  117  NMP  H6   HGA2       0.090000        1.0080           0
    1867 QQQ  117  NMP  H7   HGA2       0.090000        1.0080           0
    1868 QQQ  117  NMP  C5   CG3C52    -0.027000       12.0110           0
    1869 QQQ  117  NMP  H8   HGA2       0.090000        1.0080           0
    1870 QQQ  117  NMP  H9   HGA2       0.090000        1.0080           0
    1871 QQQ  117  NMP  C6   CG2R53     0.286000       12.0110           0
    1872 QQQ  117  NMP  O7   OG2D1     -0.500000       15.9990           0
    1873 QQQ  118  NMP  C1   CG331     -0.161000       12.0110           0
    1874 QQQ  118  NMP  H1   HGA3       0.090000        1.0080           0
    1875 QQQ  118  NMP  H2   HGA3       0.090000        1.0080           0
    1876 QQQ  118  NMP  H3   HGA3       0.090000        1.0080           0
    1877 QQQ  118  NMP  N2   NG2R53    -0.098000       14.0070           0
    1878 QQQ  118  NMP  C3   CG3C52    -0.077000       12.0110           0
    1879 QQQ  118  NMP  H4   HGA2       0.090000        1.0080           0
    1880 QQQ  118  NMP  H5   HGA2       0.090000        1.0080           0
    1881 QQQ  118  NMP  C4   CG3C52    -0.233000       12.0110           0
    1882 QQQ  118  NMP  H6   HGA2       0.090000        1.0080           0
    1883 QQQ  118  NMP  H7   HGA2       0.090000        1.0080           0
    1884 QQQ  118  NMP  C5   CG3C52    -0.027000       12.0110           0
    1885 QQQ  118  NMP  H8   HGA2       0.090000        1.0080           0
    1886 QQQ  118  NMP  H9   HGA2       0.090000        1.0080           0
    1887 QQQ  118  NMP  C6   CG2R53     0.286000       12.0110           0
    1888 QQQ  118  NMP  O7   OG2D1     -0.500000       15.9990           0
    1889 QQQ  119  NMP  C1   CG331     -0.161000       12.0110           0
    1890 QQQ  119  NMP  H1   HGA3       0.090000        1.0080           0
    1891 QQQ  119  NMP  H2   HGA3       0.090000        1.0080           0
    1892 QQQ  119  NMP  H3   HGA3       0.090000        1.0080           0
    1893 QQQ  119  NMP  N2   NG2R53    -0.098000       14.0070           0
    1894 QQQ  119  NMP  C3   CG3C52    -0.077000       12.0110           0
    1895 QQQ  119  NMP  H4   HGA2       0.090000        1.0080           0
    1896 QQQ  119  NMP  H5   HGA2       0.090000        1.0080           0
    1897 QQQ  119  NMP  C4   CG3C52    -0.233000       12.0110           0
    1898 QQQ  119  NMP  H6   HGA2       0.090000        1.0080           0
    1899 QQQ  119  NMP  H7   HGA2       0.090000        1.0080           0
    1900 QQQ  119  NMP  C5   CG3C52    -0.027000       12.0110           0
    1901 QQQ  119  NMP  H8   HGA2       0.090000        1.0080           0
    1902 QQQ  119  NMP  H9   HGA2       0.090000        1.0080           0
    1903 QQQ  119  NMP  C6   CG2R53     0.286000       12.0110           0
    1904 QQQ  119  NMP  O7   OG2D1     -0.500000       15.9990           0
    1905 QQQ  120  NMP  C1   CG331     -0.161000       12.0110           0
    1906 QQQ  120  NMP  H1   HGA3       0.090000        1.0080           0
    1907 QQQ  120  NMP  H2   HGA3       0.090000        1.0080           0
    1908 QQQ  120  NMP  H3   HGA3       0.090000        1.0080           0
    1909 QQQ  120  NMP  N2   NG2R53    -0.098000       14.0070           0
    1910 QQQ  120  NMP  C3   CG3C52    -0.077000       12.0110           0
    1911 QQQ  120  NMP  H4   HGA2       0.090000        1.0080           0
    1912 QQQ  120  NMP  H5   HGA2       0.090000        1.0080           0
    1913 QQQ  120  NMP  C4   CG3C52    -0.233000       12.0110           0
    1914 QQQ  120  NMP  H6   HGA2       0.090000        1.0080           0
    1915 QQQ  120  NMP  H7   HGA2       0.090000        1.0080           0
    1916 QQQ  120  NMP  C5   CG3C52    -0.027000       12.0110           0
    1917 QQQ  120  NMP  H8   HGA2       0.090000        1.0080           0
    1918 QQQ  120  NMP  H9   HGA2       0.090000        1.0080           0
    1919 QQQ  120  NMP  C6   CG2R53     0.286000       12.0110           0
    1920 QQQ  120  NMP  O7   OG2D1     -0.500000       15.9990           0
    1921 QQQ  121  NMP  C1   CG331     -0.161000       12.0110           0
    1922 QQQ  121  NMP  H1   HGA3       0.090000        1.0080           0
    1923 QQQ  121  NMP  H2   HGA3       0.090000        1.0080           0
    1924 QQQ  121  NMP  H3   HGA3       0.090000        1.0080           0
    1925 QQQ  121  NMP  N2   NG2R53    -0.098000       14.0070           0
    1926 QQQ  121  NMP  C3   CG3C52    -0.077000       12.0110           0
    1927 QQQ  121  NMP  H4   HGA2       0.090000        1.0080           0
    1928 QQQ  121  NMP  H5   HGA2       0.090000        1.0080           0
    1929 QQQ  121  NMP  C4   CG3C52    -0.233000       12.0110           0
    1930 QQQ  121  NMP  H6   HGA2       0.090000        1.0080           0
    1931 QQQ  121  NMP  H7   HGA2       0.090000        1.0080           0
    1932 QQQ  121  NMP  C5   CG3C52    -0.027000       12.0110           0
    1933 QQQ  121  NMP  H8   HGA2       0.090000        1.0080           0
    1934 QQQ  121  NMP  H9   HGA2       0.090000        1.0080           0
    1935 QQQ  121  NMP  C6   CG2R53     0.286000       12.0110           0
    1936 QQQ  121  NMP  O7   OG2D1     -0.500000       15.9990           0
    1937 QQQ  122  NMP  C1   CG331     -0.161000       12.0110           0
    1938 QQQ  122  NMP  H1   HGA3       0.090000        1.0080           0
    1939 QQQ  122  NMP  H2   HGA3       0.090000        1.0080           0
    1940 QQQ  122  NMP  H3   HGA3       0.090000        1.0080           0
    1941 QQQ  122  NMP  N2   NG2R53    -0.098000       14.0070           0
    1942 QQQ  122  NMP  C3   CG3C52    -0.077000       12.0110           0
    1943 QQQ  122  NMP  H4   HGA2       0.090000        1.0080           0
    1944 QQQ  122  NMP  H5   HGA2       0.090000        1.0080           0
    1945 QQQ  122  NMP  C4   CG3C52    -0.233000       12.0110           0
    1946 QQQ  122  NMP  H6   HGA2       0.090000        1.0080           0
    1947 QQQ  122  NMP  H7   HGA2       0.090000        1.0080           0
    1948 QQQ  122  NMP  C5   CG3C52    -0.027000       12.0110           0
    1949 QQQ  122  NMP  H8   HGA2       0.090000        1.0080           0
    1950 QQQ  122  NMP  H9   HGA2       0.090000        1.0080           0
    1951 QQQ  122  NMP  C6   CG2R53     0.286000       12.0110           0
    1952 QQQ  122  NMP  O7   OG2D1     -0.500000       15.9990           0
    1953 QQQ  123  NMP  C1   CG331     -0.161000       12.0110           0
    1954 QQQ  123  NMP  H1   HGA3       0.090000        1.0080           0
    1955 QQQ  123  NMP  H2   HGA3       0.090000        1.0080           0
    1956 QQQ  123  NMP  H3   HGA3       0.090000        1.0080           0
    1957 QQQ  123  NMP  N2   NG2R53    -0.098000       14.0070           0
    1958 QQQ  123  NMP  C3   CG3C52    -0.077000       12.0110           0
    1959 QQQ  123  NMP  H4   HGA2       0.090000        1.0080           0
    1960 QQQ  123  NMP  H5   HGA2       0.090000        1.0080           0
    1961 QQQ  123  NMP  C4   CG3C52    -0.233000       12.0110           0
    1962 QQQ  123  NMP  H6   HGA2       0.090000        1.0080           0
    1963 QQQ  123  NMP  H7   HGA2       0.090000        1.0080           0
    1964 QQQ  123  NMP  C5   CG3C52    -0.027000       12.0110           0
    1965 QQQ  123  NMP  H8   HGA2       0.090000        1.0080           0
    1966 QQQ  123  NMP  H9   HGA2       0.090000        1.0080           0
    1967 QQQ  123  NMP  C6   CG2R53     0.286000       12.0110           0
    1968 QQQ  123  NMP  O7   OG2D1     -0.500000       15.9990           0
    1969 QQQ  124  NMP  C1   CG331     -0.161000       12.0110           0
    1970 QQQ  124  NMP  H1   HGA3       0.090000        1.0080           0
    1971 QQQ  124  NMP  H2   HGA3       0.090000        1.0080           0
    1972 QQQ  124  NMP  H3   HGA3       0.090000        1.0080           0
    1973 QQQ  124  NMP  N2   NG2R53    -0.098000       14.0070           0
    1974 QQQ  124  NMP  C3   CG3C52    -0.077000       12.0110           0
    1975 QQQ  124  NMP  H4   HGA2       0.090000        1.0080           0
    1976 QQQ  124  NMP  H5   HGA2       0.090000        1.0080           0
    1977 QQQ  124  NMP  C4   CG3C52    -0.233000       12.0110           0
    1978 QQQ  124  NMP  H6   HGA2       0.090000        1.0080           0
    1979 QQQ  124  NMP  H7   HGA2       0.090000        1.0080           0
    1980 QQQ  124  NMP  C5   CG3C52    -0.027000       12.0110           0
    1981 QQQ  124  NMP  H8   HGA2       0.090000        1.0080           0
    1982 QQQ  124  NMP  H9   HGA2       0.090000        1.0080           0
    1983 QQQ  124  NMP  C6   CG2R53     0.286000       12.0110           0
    1984 QQQ  124  NMP  O7   OG2D1     -0.500000       15.9990           0
    1985 QQQ  125  NMP  C1   CG331     -0.161000       12.0110           0
    1986 QQQ  125  NMP  H1   HGA3       0.090000        1.0080           0
    1987 QQQ  125  NMP  H2   HGA3       0.090000        1.0080           0
    1988 QQQ  125  NMP  H3   HGA3       0.090000        1.0080           0
    1989 QQQ  125  NMP  N2   NG2R53    -0.098000       14.0070           0
    1990 QQQ  125  NMP  C3   CG3C52    -0.077000       12.0110           0
    1991 QQQ  125  NMP  H4   HGA2       0.090000        1.0080           0
    1992 QQQ  125  NMP  H5   HGA2       0.090000        1.0080           0
    1993 QQQ  125  NMP  C4   CG3C52    -0.233000       12.0110           0
    1994 QQQ  125  NMP  H6   HGA2       0.090000        1.0080           0
    1995 QQQ  125  NMP  H7   HGA2       0.090000        1.0080           0
    1996 QQQ  125  NMP  C5   CG3C52    -0.027000       12.0110           0
    1997 QQQ  125  NMP  H8   HGA2       0.090000        1.0080           0
    1998 QQQ  125  NMP  H9   HGA2       0.090000        1.0080           0
    1999 QQQ  125  NMP  C6   CG2R53     0.286000       12.0110           0
    2000 QQQ  125  NMP  O7   OG2D1     -0.500000       15.9990           0
    2001 QQQ  126  NMP  C1   CG331     -0.161000       12.0110           0
    2002 QQQ  126  NMP  H1   HGA3       0.090000        1.0080           0
    2003 QQQ  126  NMP  H2   HGA3       0.090000        1.0080           0
    2004 QQQ  126  NMP  H3   HGA3       0.090000        1.0080           0
    2005 QQQ  126  NMP  N2   NG2R53    -0.098000       14.0070           0
    2006 QQQ  126  NMP  C3   CG3C52    -0.077000       12.0110           0
    2007 QQQ  126  NMP  H4   HGA2       0.090000        1.0080           0
    2008 QQQ  126  NMP  H5   HGA2       0.090000        1.0080           0
    2009 QQQ  126  NMP  C4   CG3C52    -0.233000       12.0110           0
    2010 QQQ  126  NMP  H6   HGA2       0.090000        1.0080           0
    2011 QQQ  126  NMP  H7   HGA2       0.090000        1.0080           0
    2012 QQQ  126  NMP  C5   CG3C52    -0.027000       12.0110           0
    2013 QQQ  126  NMP  H8   HGA2       0.090000        1.0080           0
    2014 QQQ  126  NMP  H9   HGA2       0.090000        1.0080           0
    2015 QQQ  126  NMP  C6   CG2R53     0.286000       12.0110           0
    2016 QQQ  126  NMP  O7   OG2D1     -0.500000       15.9990           0
    2017 QQQ  127  NMP  C1   CG331     -0.161000       12.0110           0
    2018 QQQ  127  NMP  H1   HGA3       0.090000        1.0080           0
    2019 QQQ  127  NMP  H2   HGA3       0.090000        1.0080           0
    2020 QQQ  127  NMP  H3   HGA3       0.090000        1.0080           0
    2021 QQQ  127  NMP  N2   NG2R53    -0.098000       14.0070           0
    2022 QQQ  127  NMP  C3   CG3C52    -0.077000       12.0110           0
    2023 QQQ  127  NMP  H4   HGA2       0.090000        1.0080           0
    2024 QQQ  127  NMP  H5   HGA2       0.090000        1.0080           0
    2025 QQQ  127  NMP  C4   CG3C52    -0.233000       12.0110           0
    2026 QQQ  127  NMP  H6   HGA2       0.090000        1.0080           0
    2027 QQQ  127  NMP  H7   HGA2       0.090000        1.0080           0
    2028 QQQ  127  NMP  C5   CG3C52    -0.027000       12.0110           0
    2029 QQQ  127  NMP  H8   HGA2       0.090000        1.0080           0
    2030 QQQ  127  NMP  H9   HGA2       0.090000        1.0080           0
    2031 QQQ  127  NMP  C6   CG2R53     0.286000       12.0110           0
    2032 QQQ  127  NMP  O7   OG2D1     -0.500000       15.9990           0
    2033 QQQ  128  NMP  C1   CG331     -0.161000       12.0110           0
    2034 QQQ  128  NMP  H1   HGA3       0.090000        1.0080           0
    2035 QQQ  128  NMP  H2   HGA3       0.090000        1.0080           0
    2036 QQQ  128  NMP  H3   HGA3       0.090000        1.0080           0
    2037 QQQ  128  NMP  N2   NG2R53    -0.098000       14.0070           0
    2038 QQQ  128  NMP  C3   CG3C52    -0.077000       12.0110           0
    2039 QQQ  128  NMP  H4   HGA2       0.090000        1.0080           0
    2040 QQQ  128  NMP  H5   HGA2       0.090000        1.0080           0
    2041 QQQ  128  NMP  C4   CG3C52    -0.233000       12.0110           0
    2042 QQQ  128  NMP  H6   HGA2       0.090000        1.0080           0
    2043 QQQ  128  NMP  H7   HGA2       0.090000        1.0080           0
    2044 QQQ  128  NMP  C5   CG3C52    -0.027000       12.0110           0
    2045 QQQ  128  NMP  H8   HGA2       0.090000        1.0080           0
    2046 QQQ  128  NMP  H9   HGA2       0.090000        1.0080           0
    2047 QQQ  128  NMP  C6   CG2R53     0.286000       12.0110           0
    2048 QQQ  128  NMP  O7   OG2D1     -0.500000       15.9990           0
    2049 QQQ  129  NMP  C1   CG331     -0.161000       12.0110           0
    2050 QQQ  129  NMP  H1   HGA3       0.090000        1.0080           0
    2051 QQQ  129  NMP  H2   HGA3       0.090000        1.0080           0
    2052 QQQ  129  NMP  H3   HGA3       0.090000        1.0080           0
    2053 QQQ  129  NMP  N2   NG2R53    -0.098000       14.0070           0
    2054 QQQ  129  NMP  C3   CG3C52    -0.077000       12.0110           0
    2055 QQQ  129  NMP  H4   HGA2       0.090000        1.0080           0
    2056 QQQ  129  NMP  H5   HGA2       0.090000        1.0080           0
    2057 QQQ  129  NMP  C4   CG3C52    -0.233000       12.0110           0
    2058 QQQ  129  NMP  H6   HGA2       0.090000        1.0080           0
    2059 QQQ  129  NMP  H7   HGA2       0.090000        1.0080           0
    2060 QQQ  129  NMP  C5   CG3C52    -0.027000       12.0110           0
    2061 QQQ  129  NMP  H8   HGA2       0.090000        1.0080           0
    2062 QQQ  129  NMP  H9   HGA2       0.090000        1.0080           0
    2063 QQQ  129  NMP  C6   CG2R53     0.286000       12.0110           0
    2064 QQQ  129  NMP  O7   OG2D1     -0.500000       15.9990           0
    2065 QQQ  130  NMP  C1   CG331     -0.161000       12.0110           0
    2066 QQQ  130  NMP  H1   HGA3       0.090000        1.0080           0
    2067 QQQ  130  NMP  H2   HGA3       0.090000        1.0080           0
    2068 QQQ  130  NMP  H3   HGA3       0.090000        1.0080           0
    2069 QQQ  130  NMP  N2   NG2R53    -0.098000       14.0070           0
    2070 QQQ  130  NMP  C3   CG3C52    -0.077000       12.0110           0
    2071 QQQ  130  NMP  H4   HGA2       0.090000        1.0080           0
    2072 QQQ  130  NMP  H5   HGA2       0.090000        1.0080           0
    2073 QQQ  130  NMP  C4   CG3C52    -0.233000       12.0110           0
    2074 QQQ  130  NMP  H6   HGA2       0.090000        1.0080           0
    2075 QQQ  130  NMP  H7   HGA2       0.090000        1.0080           0
    2076 QQQ  130  NMP  C5   CG3C52    -0.027000       12.0110           0
    2077 QQQ  130  NMP  H8   HGA2       0.090000        1.0080           0
    2078 QQQ  130  NMP  H9   HGA2       0.090000        1.0080           0
    2079 QQQ  130  NMP  C6   CG2R53     0.286000       12.0110           0
    2080 QQQ  130  NMP  O7   OG2D1     -0.500000       15.9990           0
    2081 QQQ  131  NMP  C1   CG331     -0.161000       12.0110           0
    2082 QQQ  131  NMP  H1   HGA3       0.090000        1.0080           0
    2083 QQQ  131  NMP  H2   HGA3       0.090000        1.0080           0
    2084 QQQ  131  NMP  H3   HGA3       0.090000        1.0080           0
    2085 QQQ  131  NMP  N2   NG2R53    -0.098000       14.0070           0
    2086 QQQ  131  NMP  C3   CG3C52    -0.077000       12.0110           0
    2087 QQQ  131  NMP  H4   HGA2       0.090000        1.0080           0
    2088 QQQ  131  NMP  H5   HGA2       0.090000        1.0080           0
    2089 QQQ  131  NMP  C4   CG3C52    -0.233000       12.0110           0
    2090 QQQ  131  NMP  H6   HGA2       0.090000        1.0080           0
    2091 QQQ  131  NMP  H7   HGA2       0.090000        1.0080           0
    2092 QQQ  131  NMP  C5   CG3C52    -0.027000       12.0110           0
    2093 QQQ  131  NMP  H8   HGA2       0.090000        1.0080           0
    2094 QQQ  131  NMP  H9   HGA2       0.090000        1.0080           0
    2095 QQQ  131  NMP  C6   CG2R53     0.286000       12.0110           0
    2096 QQQ  131  NMP  O7   OG2D1     -0.500000       15.9990           0
    2097 QQQ  132  NMP  C1   CG331     -0.161000       12.0110           0
    2098 QQQ  132  NMP  H1   HGA3       0.090000        1.0080           0
    2099 QQQ  132  NMP  H2   HGA3       0.090000        1.0080           0
    2100 QQQ  132  NMP  H3   HGA3       0.090000        1.0080           0
    2101 QQQ  132  NMP  N2   NG2R53    -0.098000       14.0070           0
    2102 QQQ  132  NMP  C3   CG3C52    -0.077000       12.0110           0
    2103 QQQ  132  NMP  H4   HGA2       0.090000        1.0080           0
    2104 QQQ  132  NMP  H5   HGA2       0.090000        1.0080           0
    2105 QQQ  132  NMP  C4   CG3C52    -0.233000       12.0110           0
    2106 QQQ  132  NMP  H6   HGA2       0.090000        1.0080           0
    2107 QQQ  132  NMP  H7   HGA2       0.090000        1.0080           0
    2108 QQQ  132  NMP  C5   CG3C52    -0.027000       12.0110           0
    2109 QQQ  132  NMP  H8   HGA2       0.090000        1.0080           0
    2110 QQQ  132  NMP  H9   HGA2       0.090000        1.0080           0
    2111 QQQ  132  NMP  C6   CG2R53     0.286000       12.0110           0
    2112 QQQ  132  NMP  O7   OG2D1     -0.500000       15.9990           0
    2113 QQQ  133  NMP  C1   CG331     -0.161000       12.0110           0
    2114 QQQ  133  NMP  H1   HGA3       0.090000        1.0080           0
    2115 QQQ  133  NMP  H2   HGA3       0.090000        1.0080           0
    2116 QQQ  133  NMP  H3   HGA3       0.090000        1.0080           0
    2117 QQQ  133  NMP  N2   NG2R53    -0.098000       14.0070           0
    2118 QQQ  133  NMP  C3   CG3C52    -0.077000       12.0110           0
    2119 QQQ  133  NMP  H4   HGA2       0.090000        1.0080           0
    2120 QQQ  133  NMP  H5   HGA2       0.090000        1.0080           0
    2121 QQQ  133  NMP  C4   CG3C52    -0.233000       12.0110           0
    2122 QQQ  133  NMP  H6   HGA2       0.090000        1.0080           0
    2123 QQQ  133  NMP  H7   HGA2       0.090000        1.0080           0
    2124 QQQ  133  NMP  C5   CG3C52    -0.027000       12.0110           0
    2125 QQQ  133  NMP  H8   HGA2       0.090000        1.0080           0
    2126 QQQ  133  NMP  H9   HGA2       0.090000        1.0080           0
    2127 QQQ  133  NMP  C6   CG2R53     0.286000       12.0110           0
    2128 QQQ  133  NMP  O7   OG2D1     -0.500000       15.9990           0
    2129 QQQ  134  NMP  C1   CG331     -0.161000       12.0110           0
    2130 QQQ  134  NMP  H1   HGA3       0.090000        1.0080           0
    2131 QQQ  134  NMP  H2   HGA3       0.090000        1.0080           0
    2132 QQQ  134  NMP  H3   HGA3       0.090000        1.0080           0
    2133 QQQ  134  NMP  N2   NG2R53    -0.098000       14.0070           0
    2134 QQQ  134  NMP  C3   CG3C52    -0.077000       12.0110           0
    2135 QQQ  134  NMP  H4   HGA2       0.090000        1.0080           0
    2136 QQQ  134  NMP  H5   HGA2       0.090000        1.0080           0
    2137 QQQ  134  NMP  C4   CG3C52    -0.233000       12.0110           0
    2138 QQQ  134  NMP  H6   HGA2       0.090000        1.0080           0
    2139 QQQ  134  NMP  H7   HGA2       0.090000        1.0080           0
    2140 QQQ  134  NMP  C5   CG3C52    -0.027000       12.0110           0
    2141 QQQ  134  NMP  H8   HGA2       0.090000        1.0080           0
    2142 QQQ  134  NMP  H9   HGA2       0.090000        1.0080           0
    2143 QQQ  134  NMP  C6   CG2R53     0.286000       12.0110           0
    2144 QQQ  134  NMP  O7   OG2D1     -0.500000       15.9990           0
    2145 QQQ  135  NMP  C1   CG331     -0.161000       12.0110           0
    2146 QQQ  135  NMP  H1   HGA3       0.090000        1.0080           0
    2147 QQQ  135  NMP  H2   HGA3       0.090000        1.0080           0
    2148 QQQ  135  NMP  H3   HGA3       0.090000        1.0080           0
    2149 QQQ  135  NMP  N2   NG2R53    -0.098000       14.0070           0
    2150 QQQ  135  NMP  C3   CG3C52    -0.077000       12.0110           0
    2151 QQQ  135  NMP  H4   HGA2       0.090000        1.0080           0
    2152 QQQ  135  NMP  H5   HGA2       0.090000        1.0080           0
    2153 QQQ  135  NMP  C4   CG3C52    -0.233000       12.0110           0
    2154 QQQ  135  NMP  H6   HGA2       0.090000        1.0080           0
    2155 QQQ  135  NMP  H7   HGA2       0.090000        1.0080           0
    2156 QQQ  135  NMP  C5   CG3C52    -0.027000       12.0110           0
    2157 QQQ  135  NMP  H8   HGA2       0.090000        1.0080           0
    2158 QQQ  135  NMP  H9   HGA2       0.090000        1.0080           0
    2159 QQQ  135  NMP  C6   CG2R53     0.286000       12.0110           0
    2160 QQQ  135  NMP  O7   OG2D1     -0.500000       15.9990           0
    2161 QQQ  136  NMP  C1   CG331     -0.161000       12.0110           0
    2162 QQQ  136  NMP  H1   HGA3       0.090000        1.0080           0
    2163 QQQ  136  NMP  H2   HGA3       0.090000        1.0080           0
    2164 QQQ  136  NMP  H3   HGA3       0.090000        1.0080           0
    2165 QQQ  136  NMP  N2   NG2R53    -0.098000       14.0070           0
    2166 QQQ  136  NMP  C3   CG3C52    -0.077000       12.0110           0
    2167 QQQ  136  NMP  H4   HGA2       0.090000        1.0080           0
    2168 QQQ  136  NMP  H5   HGA2       0.090000        1.0080           0
    2169 QQQ  136  NMP  C4   CG3C52    -0.233000       12.0110           0
    2170 QQQ  136  NMP  H6   HGA2       0.090000        1.0080           0
    2171 QQQ  136  NMP  H7   HGA2       0.090000        1.0080           0
    2172 QQQ  136  NMP  C5   CG3C52    -0.027000       12.0110           0
    2173 QQQ  136  NMP  H8   HGA2       0.090000        1.0080           0
    2174 QQQ  136  NMP  H9   HGA2       0.090000        1.0080           0
    2175 QQQ  136  NMP  C6   CG2R53     0.286000       12.0110           0
    2176 QQQ  136  NMP  O7   OG2D1     -0.500000       15.9990           0
    2177 QQQ  137  NMP  C1   CG331     -0.161000       12.0110           0
    2178 QQQ  137  NMP  H1   HGA3       0.090000        1.0080           0
    2179 QQQ  137  NMP  H2   HGA3       0.090000        1.0080           0
    2180 QQQ  137  NMP  H3   HGA3       0.090000        1.0080           0
    2181 QQQ  137  NMP  N2   NG2R53    -0.098000       14.0070           0
    2182 QQQ  137  NMP  C3   CG3C52    -0.077000       12.0110           0
    2183 QQQ  137  NMP  H4   HGA2       0.090000        1.0080           0
    2184 QQQ  137  NMP  H5   HGA2       0.090000        1.0080           0
    2185 QQQ  137  NMP  C4   CG3C52    -0.233000       12.0110           0
    2186 QQQ  137  NMP  H6   HGA2       0.090000        1.0080           0
    2187 QQQ  137  NMP  H7   HGA2       0.090000        1.0080           0
    2188 QQQ  137  NMP  C5   CG3C52    -0.027000       12.0110           0
    2189 QQQ  137  NMP  H8   HGA2       0.090000        1.0080           0
    2190 QQQ  137  NMP  H9   HGA2       0.090000        1.0080           0
    2191 QQQ  137  NMP  C6   CG2R53     0.286000       12.0110           0
    2192 QQQ  137  NMP  O7   OG2D1     -0.500000       15.9990           0
    2193 QQQ  138  NMP  C1   CG331     -0.161000       12.0110           0
    2194 QQQ  138  NMP  H1   HGA3       0.090000        1.0080           0
    2195 QQQ  138  NMP  H2   HGA3       0.090000        1.0080           0
    2196 QQQ  138  NMP  H3   HGA3       0.090000        1.0080           0
    2197 QQQ  138  NMP  N2   NG2R53    -0.098000       14.0070           0
    2198 QQQ  138  NMP  C3   CG3C52    -0.077000       12.0110           0
    2199 QQQ  138  NMP  H4   HGA2       0.090000        1.0080           0
    2200 QQQ  138  NMP  H5   HGA2       0.090000        1.0080           0
    2201 QQQ  138  NMP  C4   CG3C52    -0.233000       12.0110           0
    2202 QQQ  138  NMP  H6   HGA2       0.090000        1.0080           0
    2203 QQQ  138  NMP  H7   HGA2       0.090000        1.0080           0
    2204 QQQ  138  NMP  C5   CG3C52    -0.027000       12.0110           0
    2205 QQQ  138  NMP  H8   HGA2       0.090000        1.0080           0
    2206 QQQ  138  NMP  H9   HGA2       0.090000        1.0080           0
    2207 QQQ  138  NMP  C6   CG2R53     0.286000       12.0110           0
    2208 QQQ  138  NMP  O7   OG2D1     -0.500000       15.9990           0
    2209 QQQ  139  NMP  C1   CG331     -0.161000       12.0110           0
    2210 QQQ  139  NMP  H1   HGA3       0.090000        1.0080           0
    2211 QQQ  139  NMP  H2   HGA3       0.090000        1.0080           0
    2212 QQQ  139  NMP  H3   HGA3       0.090000        1.0080           0
    2213 QQQ  139  NMP  N2   NG2R53    -0.098000       14.0070           0
    2214 QQQ  139  NMP  C3   CG3C52    -0.077000       12.0110           0
    2215 QQQ  139  NMP  H4   HGA2       0.090000        1.0080           0
    2216 QQQ  139  NMP  H5   HGA2       0.090000        1.0080           0
    2217 QQQ  139  NMP  C4   CG3C52    -0.233000       12.0110           0
    2218 QQQ  139  NMP  H6   HGA2       0.090000        1.0080           0
    2219 QQQ  139  NMP  H7   HGA2       0.090000        1.0080           0
    2220 QQQ  139  NMP  C5   CG3C52    -0.027000       12.0110           0
    2221 QQQ  139  NMP  H8   HGA2       0.090000        1.0080           0
    2222 QQQ  139  NMP  H9   HGA2       0.090000        1.0080           0
    2223 QQQ  139  NMP  C6   CG2R53     0.286000       12.0110           0
    2224 QQQ  139  NMP  O7   OG2D1     -0.500000       15.9990           0
    2225 QQQ  140  NMP  C1   CG331     -0.161000       12.0110           0
    2226 QQQ  140  NMP  H1   HGA3       0.090000        1.0080           0
    2227 QQQ  140  NMP  H2   HGA3       0.090000        1.0080           0
    2228 QQQ  140  NMP  H3   HGA3       0.090000        1.0080           0
    2229 QQQ  140  NMP  N2   NG2R53    -0.098000       14.0070           0
    2230 QQQ  140  NMP  C3   CG3C52    -0.077000       12.0110           0
    2231 QQQ  140  NMP  H4   HGA2       0.090000        1.0080           0
    2232 QQQ  140  NMP  H5   HGA2       0.090000        1.0080           0
    2233 QQQ  140  NMP  C4   CG3C52    -0.233000       12.0110           0
    2234 QQQ  140  NMP  H6   HGA2       0.090000        1.0080           0
    2235 QQQ  140  NMP  H7   HGA2       0.090000        1.0080           0
    2236 QQQ  140  NMP  C5   CG3C52    -0.027000       12.0110           0
    2237 QQQ  140  NMP  H8   HGA2       0.090000        1.0080           0
    2238 QQQ  140  NMP  H9   HGA2       0.090000        1.0080           0
    2239 QQQ  140  NMP  C6   CG2R53     0.286000       12.0110           0
    2240 QQQ  140  NMP  O7   OG2D1     -0.500000       15.9990           0
    2241 QQQ  141  NMP  C1   CG331     -0.161000       12.0110           0
    2242 QQQ  141  NMP  H1   HGA3       0.090000        1.0080           0
    2243 QQQ  141  NMP  H2   HGA3       0.090000        1.0080           0
    2244 QQQ  141  NMP  H3   HGA3       0.090000        1.0080           0
    2245 QQQ  141  NMP  N2   NG2R53    -0.098000       14.0070           0
    2246 QQQ  141  NMP  C3   CG3C52    -0.077000       12.0110           0
    2247 QQQ  141  NMP  H4   HGA2       0.090000        1.0080           0
    2248 QQQ  141  NMP  H5   HGA2       0.090000        1.0080           0
    2249 QQQ  141  NMP  C4   CG3C52    -0.233000       12.0110           0
    2250 QQQ  141  NMP  H6   HGA2       0.090000        1.0080           0
    2251 QQQ  141  NMP  H7   HGA2       0.090000        1.0080           0
    2252 QQQ  141  NMP  C5   CG3C52    -0.027000       12.0110           0
    2253 QQQ  141  NMP  H8   HGA2       0.090000        1.0080           0
    2254 QQQ  141  NMP  H9   HGA2       0.090000        1.0080           0
    2255 QQQ  141  NMP  C6   CG2R53     0.286000       12.0110           0
    2256 QQQ  141  NMP  O7   OG2D1     -0.500000       15.9990           0
    2257 QQQ  142  NMP  C1   CG331     -0.161000       12.0110           0
    2258 QQQ  142  NMP  H1   HGA3       0.090000        1.0080           0
    2259 QQQ  142  NMP  H2   HGA3       0.090000        1.0080           0
    2260 QQQ  142  NMP  H3   HGA3       0.090000        1.0080           0
    2261 QQQ  142  NMP  N2   NG2R53    -0.098000       14.0070           0
    2262 QQQ  142  NMP  C3   CG3C52    -0.077000       12.0110           0
    2263 QQQ  142  NMP  H4   HGA2       0.090000        1.0080           0
    2264 QQQ  142  NMP  H5   HGA2       0.090000        1.0080           0
    2265 QQQ  142  NMP  C4   CG3C52    -0.233000       12.0110           0
    2266 QQQ  142  NMP  H6   HGA2       0.090000        1.0080           0
    2267 QQQ  142  NMP  H7   HGA2       0.090000        1.0080           0
    2268 QQQ  142  NMP  C5   CG3C52    -0.027000       12.0110           0
    2269 QQQ  142  NMP  H8   HGA2       0.090000        1.0080           0
    2270 QQQ  142  NMP  H9   HGA2       0.090000        1.0080           0
    2271 QQQ  142  NMP  C6   CG2R53     0.286000       12.0110           0
    2272 QQQ  142  NMP  O7   OG2D1     -0.500000       15.9990           0
    2273 QQQ  143  NMP  C1   CG331     -0.161000       12.0110           0
    2274 QQQ  143  NMP  H1   HGA3       0.090000        1.0080           0
    2275 QQQ  143  NMP  H2   HGA3       0.090000        1.0080           0
    2276 QQQ  143  NMP  H3   HGA3       0.090000        1.0080           0
    2277 QQQ  143  NMP  N2   NG2R53    -0.098000       14.0070           0
    2278 QQQ  143  NMP  C3   CG3C52    -0.077000       12.0110           0
    2279 QQQ  143  NMP  H4   HGA2       0.090000        1.0080           0
    2280 QQQ  143  NMP  H5   HGA2       0.090000        1.0080           0
    2281 QQQ  143  NMP  C4   CG3C52    -0.233000       12.0110           0
    2282 QQQ  143  NMP  H6   HGA2       0.090000        1.0080           0
    2283 QQQ  143  NMP  H7   HGA2       0.090000        1.0080           0
    2284 QQQ  143  NMP  C5   CG3C52    -0.027000       12.0110           0
    2285 QQQ  143  NMP  H8   HGA2       0.090000        1.0080           0
    2286 QQQ  143  NMP  H9   HGA2       0.090000        1.0080           0
    2287 QQQ  143  NMP  C6   CG2R53     0.286000       12.0110           0
    2288 QQQ  143  NMP  O7   OG2D1     -0.500000       15.9990           0
    2289 QQQ  144  NMP  C1   CG331     -0.161000       12.0110           0
    2290 QQQ  144  NMP  H1   HGA3       0.090000        1.0080           0
    2291 QQQ  144  NMP  H2   HGA3       0.090000        1.0080           0
    2292 QQQ  144  NMP  H3   HGA3       0.090000        1.0080           0
    2293 QQQ  144  NMP  N2   NG2R53    -0.098000       14.0070           0
    2294 QQQ  144  NMP  C3   CG3C52    -0.077000       12.0110           0
    2295 QQQ  144  NMP  H4   HGA2       0.090000        1.0080           0
    2296 QQQ  144  NMP  H5   HGA2       0.090000        1.0080           0
    2297 QQQ  144  NMP  C4   CG3C52    -0.233000       12.0110           0
    2298 QQQ  144  NMP  H6   HGA2       0.090000        1.0080           0
    2299 QQQ  144  NMP  H7   HGA2       0.090000        1.0080           0
    2300 QQQ  144  NMP  C5   CG3C52    -0.027000       12.0110           0
    2301 QQQ  144  NMP  H8   HGA2       0.090000        1.0080           0
    2302 QQQ  144  NMP  H9   HGA2       0.090000        1.0080           0
    2303 QQQ  144  NMP  C6   CG2R53     0.286000       12.0110           0
    2304 QQQ  144  NMP  O7   OG2D1     -0.500000       15.9990           0
    2305 QQQ  145  NMP  C1   CG331     -0.161000       12.0110           0
    2306 QQQ  145  NMP  H1   HGA3       0.090000        1.0080           0
    2307 QQQ  145  NMP  H2   HGA3       0.090000        1.0080           0
    2308 QQQ  145  NMP  H3   HGA3       0.090000        1.0080           0
    2309 QQQ  145  NMP  N2   NG2R53    -0.098000       14.0070           0
    2310 QQQ  145  NMP  C3   CG3C52    -0.077000       12.0110           0
    2311 QQQ  145  NMP  H4   HGA2       0.090000        1.0080           0
    2312 QQQ  145  NMP  H5   HGA2       0.090000        1.0080           0
    2313 QQQ  145  NMP  C4   CG3C52    -0.233000       12.0110           0
    2314 QQQ  145  NMP  H6   HGA2       0.090000        1.0080           0
    2315 QQQ  145  NMP  H7   HGA2       0.090000        1.0080           0
    2316 QQQ  145  NMP  C5   CG3C52    -0.027000       12.0110           0
    2317 QQQ  145  NMP  H8   HGA2       0.090000        1.0080           0
    2318 QQQ  145  NMP  H9   HGA2       0.090000        1.0080           0
    2319 QQQ  145  NMP  C6   CG2R53     0.286000       12.0110           0
    2320 QQQ  145  NMP  O7   OG2D1     -0.500000       15.9990           0
    2321 QQQ  146  NMP  C1   CG331     -0.161000       12.0110           0
    2322 QQQ  146  NMP  H1   HGA3       0.090000        1.0080           0
    2323 QQQ  146  NMP  H2   HGA3       0.090000        1.0080           0
    2324 QQQ  146  NMP  H3   HGA3       0.090000        1.0080           0
    2325 QQQ  146  NMP  N2   NG2R53    -0.098000       14.0070           0
    2326 QQQ  146  NMP  C3   CG3C52    -0.077000       12.0110           0
    2327 QQQ  146  NMP  H4   HGA2       0.090000        1.0080           0
    2328 QQQ  146  NMP  H5   HGA2       0.090000        1.0080           0
    2329 QQQ  146  NMP  C4   CG3C52    -0.233000       12.0110           0
    2330 QQQ  146  NMP  H6   HGA2       0.090000        1.0080           0
    2331 QQQ  146  NMP  H7   HGA2       0.090000        1.0080           0
    2332 QQQ  146  NMP  C5   CG3C52    -0.027000       12.0110           0
    2333 QQQ  146  NMP  H8   HGA2       0.090000        1.0080           0
    2334 QQQ  146  NMP  H9   HGA2       0.090000        1.0080           0
    2335 QQQ  146  NMP  C6   CG2R53     0.286000       12.0110           0
    2336 QQQ  146  NMP  O7   OG2D1     -0.500000       15.9990           0
    2337 QQQ  147  NMP  C1   CG331     -0.161000       12.0110           0
    2338 QQQ  147  NMP  H1   HGA3       0.090000        1.0080           0
    2339 QQQ  147  NMP  H2   HGA3       0.090000        1.0080           0
    2340 QQQ  147  NMP  H3   HGA3       0.090000        1.0080           0
    2341 QQQ  147  NMP  N2   NG2R53    -0.098000       14.0070           0
    2342 QQQ  147  NMP  C3   CG3C52    -0.077000       12.0110           0
    2343 QQQ  147  NMP  H4   HGA2       0.090000        1.0080           0
    2344 QQQ  147  NMP  H5   HGA2       0.090000        1.0080           0
    2345 QQQ  147  NMP  C4   CG3C52    -0.233000       12.0110           0
    2346 QQQ  147  NMP  H6   HGA2       0.090000        1.0080           0
    2347 QQQ  147  NMP  H7   HGA2       0.090000        1.0080           0
    2348 QQQ  147  NMP  C5   CG3C52    -0.027000       12.0110           0
    2349 QQQ  147  NMP  H8   HGA2       0.090000        1.0080           0
    2350 QQQ  147  NMP  H9   HGA2       0.090000        1.0080           0
    2351 QQQ  147  NMP  C6   CG2R53     0.286000       12.0110           0
    2352 QQQ  147  NMP  O7   OG2D1     -0.500000       15.9990           0
    2353 QQQ  148  NMP  C1   CG331     -0.161000       12.0110           0
    2354 QQQ  148  NMP  H1   HGA3       0.090000        1.0080           0
    2355 QQQ  148  NMP  H2   HGA3       0.090000        1.0080           0
    2356 QQQ  148  NMP  H3   HGA3       0.090000        1.0080           0
    2357 QQQ  148  NMP  N2   NG2R53    -0.098000       14.0070           0
    2358 QQQ  148  NMP  C3   CG3C52    -0.077000       12.0110           0
    2359 QQQ  148  NMP  H4   HGA2       0.090000        1.0080           0
    2360 QQQ  148  NMP  H5   HGA2       0.090000        1.0080           0
    2361 QQQ  148  NMP  C4   CG3C52    -0.233000       12.0110           0
    2362 QQQ  148  NMP  H6   HGA2       0.090000        1.0080           0
    2363 QQQ  148  NMP  H7   HGA2       0.090000        1.0080           0
    2364 QQQ  148  NMP  C5   CG3C52    -0.027000       12.0110           0
    2365 QQQ  148  NMP  H8   HGA2       0.090000        1.0080           0
    2366 QQQ  148  NMP  H9   HGA2       0.090000        1.0080           0
    2367 QQQ  148  NMP  C6   CG2R53     0.286000       12.0110           0
    2368 QQQ  148  NMP  O7   OG2D1     -0.500000       15.9990           0
    2369 QQQ  149  NMP  C1   CG331     -0.161000       12.0110           0
    2370 QQQ  149  NMP  H1   HGA3       0.090000        1.0080           0
    2371 QQQ  149  NMP  H2   HGA3       0.090000        1.0080           0
    2372 QQQ  149  NMP  H3   HGA3       0.090000        1.0080           0
    2373 QQQ  149  NMP  N2   NG2R53    -0.098000       14.0070           0
    2374 QQQ  149  NMP  C3   CG3C52    -0.077000       12.0110           0
    2375 QQQ  149  NMP  H4   HGA2       0.090000        1.0080           0
    2376 QQQ  149  NMP  H5   HGA2       0.090000        1.0080           0
    2377 QQQ  149  NMP  C4   CG3C52    -0.233000       12.0110           0
    2378 QQQ  149  NMP  H6   HGA2       0.090000        1.0080           0
    2379 QQQ  149  NMP  H7   HGA2       0.090000        1.0080           0
    2380 QQQ  149  NMP  C5   CG3C52    -0.027000       12.0110           0
    2381 QQQ  149  NMP  H8   HGA2       0.090000        1.0080           0
    2382 QQQ  149  NMP  H9   HGA2       0.090000        1.0080           0
    2383 QQQ  149  NMP  C6   CG2R53     0.286000       12.0110           0
    2384 QQQ  149  NMP  O7   OG2D1     -0.500000       15.9990           0
    2385 QQQ  150  NMP  C1   CG331     -0.161000       12.0110           0
    2386 QQQ  150  NMP  H1   HGA3       0.090000        1.0080           0
    2387 QQQ  150  NMP  H2   HGA3       0.090000        1.0080           0
    2388 QQQ  150  NMP  H3   HGA3       0.090000        1.0080           0
    2389 QQQ  150  NMP  N2   NG2R53    -0.098000       14.0070           0
    2390 QQQ  150  NMP  C3   CG3C52    -0.077000       12.0110           0
    2391 QQQ  150  NMP  H4   HGA2       0.090000        1.0080           0
    2392 QQQ  150  NMP  H5   HGA2       0.090000        1.0080           0
    2393 QQQ  150  NMP  C4   CG3C52    -0.233000       12.0110           0
    2394 QQQ  150  NMP  H6   HGA2       0.090000        1.0080           0
    2395 QQQ  150  NMP  H7   HGA2       0.090000        1.0080           0
    2396 QQQ  150  NMP  C5   CG3C52    -0.027000       12.0110           0
    2397 QQQ  150  NMP  H8   HGA2       0.090000        1.0080           0
    2398 QQQ  150  NMP  H9   HGA2       0.090000        1.0080           0
    2399 QQQ  150  NMP  C6   CG2R53     0.286000       12.0110           0
    2400 QQQ  150  NMP  O7   OG2D1     -0.500000       15.9990           0
    2401 QQQ  151  NMP  C1   CG331     -0.161000       12.0110           0
    2402 QQQ  151  NMP  H1   HGA3       0.090000        1.0080           0
    2403 QQQ  151  NMP  H2   HGA3       0.090000        1.0080           0
    2404 QQQ  151  NMP  H3   HGA3       0.090000        1.0080           0
    2405 QQQ  151  NMP  N2   NG2R53    -0.098000       14.0070           0
    2406 QQQ  151  NMP  C3   CG3C52    -0.077000       12.0110           0
    2407 QQQ  151  NMP  H4   HGA2       0.090000        1.0080           0
    2408 QQQ  151  NMP  H5   HGA2       0.090000        1.0080           0
    2409 QQQ  151  NMP  C4   CG3C52    -0.233000       12.0110           0
    2410 QQQ  151  NMP  H6   HGA2       0.090000        1.0080           0
    2411 QQQ  151  NMP  H7   HGA2       0.090000        1.0080           0
    2412 QQQ  151  NMP  C5   CG3C52    -0.027000       12.0110           0
    2413 QQQ  151  NMP  H8   HGA2       0.090000        1.0080           0
    2414 QQQ  151  NMP  H9   HGA2       0.090000        1.0080           0
    2415 QQQ  151  NMP  C6   CG2R53     0.286000       12.0110           0
    2416 QQQ  151  NMP  O7   OG2D1     -0.500000       15.9990           0
    2417 QQQ  152  NMP  C1   CG331     -0.161000       12.0110           0
    2418 QQQ  152  NMP  H1   HGA3       0.090000        1.0080           0
    2419 QQQ  152  NMP  H2   HGA3       0.090000        1.0080           0
    2420 QQQ  152  NMP  H3   HGA3       0.090000        1.0080           0
    2421 QQQ  152  NMP  N2   NG2R53    -0.098000       14.0070           0
    2422 QQQ  152  NMP  C3   CG3C52    -0.077000       12.0110           0
    2423 QQQ  152  NMP  H4   HGA2       0.090000        1.0080           0
    2424 QQQ  152  NMP  H5   HGA2       0.090000        1.0080           0
    2425 QQQ  152  NMP  C4   CG3C52    -0.233000       12.0110           0
    2426 QQQ  152  NMP  H6   HGA2       0.090000        1.0080           0
    2427 QQQ  152  NMP  H7   HGA2       0.090000        1.0080           0
    2428 QQQ  152  NMP  C5   CG3C52    -0.027000       12.0110           0
    2429 QQQ  152  NMP  H8   HGA2       0.090000        1.0080           0
    2430 QQQ  152  NMP  H9   HGA2       0.090000        1.0080           0
    2431 QQQ  152  NMP  C6   CG2R53     0.286000       12.0110           0
    2432 QQQ  152  NMP  O7   OG2D1     -0.500000       15.9990           0
    2433 QQQ  153  NMP  C1   CG331     -0.161000       12.0110           0
    2434 QQQ  153  NMP  H1   HGA3       0.090000        1.0080           0
    2435 QQQ  153  NMP  H2   HGA3       0.090000        1.0080           0
    2436 QQQ  153  NMP  H3   HGA3       0.090000        1.0080           0
    2437 QQQ  153  NMP  N2   NG2R53    -0.098000       14.0070           0
    2438 QQQ  153  NMP  C3   CG3C52    -0.077000       12.0110           0
    2439 QQQ  153  NMP  H4   HGA2       0.090000        1.0080           0
    2440 QQQ  153  NMP  H5   HGA2       0.090000        1.0080           0
    2441 QQQ  153  NMP  C4   CG3C52    -0.233000       12.0110           0
    2442 QQQ  153  NMP  H6   HGA2       0.090000        1.0080           0
    2443 QQQ  153  NMP  H7   HGA2       0.090000        1.0080           0
    2444 QQQ  153  NMP  C5   CG3C52    -0.027000       12.0110           0
    2445 QQQ  153  NMP  H8   HGA2       0.090000        1.0080           0
    2446 QQQ  153  NMP  H9   HGA2       0.090000        1.0080           0
    2447 QQQ  153  NMP  C6   CG2R53     0.286000       12.0110           0
    2448 QQQ  153  NMP  O7   OG2D1     -0.500000       15.9990           0
    2449 QQQ  154  NMP  C1   CG331     -0.161000       12.0110           0
    2450 QQQ  154  NMP  H1   HGA3       0.090000        1.0080           0
    2451 QQQ  154  NMP  H2   HGA3       0.090000        1.0080           0
    2452 QQQ  154  NMP  H3   HGA3       0.090000        1.0080           0
    2453 QQQ  154  NMP  N2   NG2R53    -0.098000       14.0070           0
    2454 QQQ  154  NMP  C3   CG3C52    -0.077000       12.0110           0
    2455 QQQ  154  NMP  H4   HGA2       0.090000        1.0080           0
    2456 QQQ  154  NMP  H5   HGA2       0.090000        1.0080           0
    2457 QQQ  154  NMP  C4   CG3C52    -0.233000       12.0110           0
    2458 QQQ  154  NMP  H6   HGA2       0.090000        1.0080           0
    2459 QQQ  154  NMP  H7   HGA2       0.090000        1.0080           0
    2460 QQQ  154  NMP  C5   CG3C52    -0.027000       12.0110           0
    2461 QQQ  154  NMP  H8   HGA2       0.090000        1.0080           0
    2462 QQQ  154  NMP  H9   HGA2       0.090000        1.0080           0
    2463 QQQ  154  NMP  C6   CG2R53     0.286000       12.0110           0
    2464 QQQ  154  NMP  O7   OG2D1     -0.500000       15.9990           0
    2465 QQQ  155  NMP  C1   CG331     -0.161000       12.0110           0
    2466 QQQ  155  NMP  H1   HGA3       0.090000        1.0080           0
    2467 QQQ  155  NMP  H2   HGA3       0.090000        1.0080           0
    2468 QQQ  155  NMP  H3   HGA3       0.090000        1.0080           0
    2469 QQQ  155  NMP  N2   NG2R53    -0.098000       14.0070           0
    2470 QQQ  155  NMP  C3   CG3C52    -0.077000       12.0110           0
    2471 QQQ  155  NMP  H4   HGA2       0.090000        1.0080           0
    2472 QQQ  155  NMP  H5   HGA2       0.090000        1.0080           0
    2473 QQQ  155  NMP  C4   CG3C52    -0.233000       12.0110           0
    2474 QQQ  155  NMP  H6   HGA2       0.090000        1.0080           0
    2475 QQQ  155  NMP  H7   HGA2       0.090000        1.0080           0
    2476 QQQ  155  NMP  C5   CG3C52    -0.027000       12.0110           0
    2477 QQQ  155  NMP  H8   HGA2       0.090000        1.0080           0
    2478 QQQ  155  NMP  H9   HGA2       0.090000        1.0080           0
    2479 QQQ  155  NMP  C6   CG2R53     0.286000       12.0110           0
    2480 QQQ  155  NMP  O7   OG2D1     -0.500000       15.9990           0
    2481 QQQ  156  NMP  C1   CG331     -0.161000       12.0110           0
    2482 QQQ  156  NMP  H1   HGA3       0.090000        1.0080           0
    2483 QQQ  156  NMP  H2   HGA3       0.090000        1.0080           0
    2484 QQQ  156  NMP  H3   HGA3       0.090000        1.0080           0
    2485 QQQ  156  NMP  N2   NG2R53    -0.098000       14.0070           0
    2486 QQQ  156  NMP  C3   CG3C52    -0.077000       12.0110           0
    2487 QQQ  156  NMP  H4   HGA2       0.090000        1.0080           0
    2488 QQQ  156  NMP  H5   HGA2       0.090000        1.0080           0
    2489 QQQ  156  NMP  C4   CG3C52    -0.233000       12.0110           0
    2490 QQQ  156  NMP  H6   HGA2       0.090000        1.0080           0
    2491 QQQ  156  NMP  H7   HGA2       0.090000        1.0080           0
    2492 QQQ  156  NMP  C5   CG3C52    -0.027000       12.0110           0
    2493 QQQ  156  NMP  H8   HGA2       0.090000        1.0080           0
    2494 QQQ  156  NMP  H9   HGA2       0.090000        1.0080           0
    2495 QQQ  156  NMP  C6   CG2R53     0.286000       12.0110           0
    2496 QQQ  156  NMP  O7   OG2D1     -0.500000       15.9990           0
    2497 QQQ  157  NMP  C1   CG331     -0.161000       12.0110           0
    2498 QQQ  157  NMP  H1   HGA3       0.090000        1.0080           0
    2499 QQQ  157  NMP  H2   HGA3       0.090000        1.0080           0
    2500 QQQ  157  NMP  H3   HGA3       0.090000        1.0080           0
    2501 QQQ  157  NMP  N2   NG2R53    -0.098000       14.0070           0
    2502 QQQ  157  NMP  C3   CG3C52    -0.077000       12.0110           0
    2503 QQQ  157  NMP  H4   HGA2       0.090000        1.0080           0
    2504 QQQ  157  NMP  H5   HGA2       0.090000        1.0080           0
    2505 QQQ  157  NMP  C4   CG3C52    -0.233000       12.0110           0
    2506 QQQ  157  NMP  H6   HGA2       0.090000        1.0080           0
    2507 QQQ  157  NMP  H7   HGA2       0.090000        1.0080           0
    2508 QQQ  157  NMP  C5   CG3C52    -0.027000       12.0110           0
    2509 QQQ  157  NMP  H8   HGA2       0.090000        1.0080           0
    2510 QQQ  157  NMP  H9   HGA2       0.090000        1.0080           0
    2511 QQQ  157  NMP  C6   CG2R53     0.286000       12.0110           0
    2512 QQQ  157  NMP  O7   OG2D1     -0.500000       15.9990           0
    2513 QQQ  158  NMP  C1   CG331     -0.161000       12.0110           0
    2514 QQQ  158  NMP  H1   HGA3       0.090000        1.0080           0
    2515 QQQ  158  NMP  H2   HGA3       0.090000        1.0080           0
    2516 QQQ  158  NMP  H3   HGA3       0.090000        1.0080           0
    2517 QQQ  158  NMP  N2   NG2R53    -0.098000       14.0070           0
    2518 QQQ  158  NMP  C3   CG3C52    -0.077000       12.0110           0
    2519 QQQ  158  NMP  H4   HGA2       0.090000        1.0080           0
    2520 QQQ  158  NMP  H5   HGA2       0.090000        1.0080           0
    2521 QQQ  158  NMP  C4   CG3C52    -0.233000       12.0110           0
    2522 QQQ  158  NMP  H6   HGA2       0.090000        1.0080           0
    2523 QQQ  158  NMP  H7   HGA2       0.090000        1.0080           0
    2524 QQQ  158  NMP  C5   CG3C52    -0.027000       12.0110           0
    2525 QQQ  158  NMP  H8   HGA2       0.090000        1.0080           0
    2526 QQQ  158  NMP  H9   HGA2       0.090000        1.0080           0
    2527 QQQ  158  NMP  C6   CG2R53     0.286000       12.0110           0
    2528 QQQ  158  NMP  O7   OG2D1     -0.500000       15.9990           0
    2529 QQQ  159  NMP  C1   CG331     -0.161000       12.0110           0
    2530 QQQ  159  NMP  H1   HGA3       0.090000        1.0080           0
    2531 QQQ  159  NMP  H2   HGA3       0.090000        1.0080           0
    2532 QQQ  159  NMP  H3   HGA3       0.090000        1.0080           0
    2533 QQQ  159  NMP  N2   NG2R53    -0.098000       14.0070           0
    2534 QQQ  159  NMP  C3   CG3C52    -0.077000       12.0110           0
    2535 QQQ  159  NMP  H4   HGA2       0.090000        1.0080           0
    2536 QQQ  159  NMP  H5   HGA2       0.090000        1.0080           0
    2537 QQQ  159  NMP  C4   CG3C52    -0.233000       12.0110           0
    2538 QQQ  159  NMP  H6   HGA2       0.090000        1.0080           0
    2539 QQQ  159  NMP  H7   HGA2       0.090000        1.0080           0
    2540 QQQ  159  NMP  C5   CG3C52    -0.027000       12.0110           0
    2541 QQQ  159  NMP  H8   HGA2       0.090000        1.0080           0
    2542 QQQ  159  NMP  H9   HGA2       0.090000        1.0080           0
    2543 QQQ  159  NMP  C6   CG2R53     0.286000       12.0110           0
    2544 QQQ  159  NMP  O7   OG2D1     -0.500000       15.9990           0
    2545 QQQ  160  NMP  C1   CG331     -0.161000       12.0110           0
    2546 QQQ  160  NMP  H1   HGA3       0.090000        1.0080           0
    2547 QQQ  160  NMP  H2   HGA3       0.090000        1.0080           0
    2548 QQQ  160  NMP  H3   HGA3       0.090000        1.0080           0
    2549 QQQ  160  NMP  N2   NG2R53    -0.098000       14.0070           0
    2550 QQQ  160  NMP  C3   CG3C52    -0.077000       12.0110           0
    2551 QQQ  160  NMP  H4   HGA2       0.090000        1.0080           0
    2552 QQQ  160  NMP  H5   HGA2       0.090000        1.0080           0
    2553 QQQ  160  NMP  C4   CG3C52    -0.233000       12.0110           0
    2554 QQQ  160  NMP  H6   HGA2       0.090000        1.0080           0
    2555 QQQ  160  NMP  H7   HGA2       0.090000        1.0080           0
    2556 QQQ  160  NMP  C5   CG3C52    -0.027000       12.0110           0
    2557 QQQ  160  NMP  H8   HGA2       0.090000        1.0080           0
    2558 QQQ  160  NMP  H9   HGA2       0.090000        1.0080           0
    2559 QQQ  160  NMP  C6   CG2R53     0.286000       12.0110           0
    2560 QQQ  160  NMP  O7   OG2D1     -0.500000       15.9990           0
    2561 QQQ  161  NMP  C1   CG331     -0.161000       12.0110           0
    2562 QQQ  161  NMP  H1   HGA3       0.090000        1.0080           0
    2563 QQQ  161  NMP  H2   HGA3       0.090000        1.0080           0
    2564 QQQ  161  NMP  H3   HGA3       0.090000        1.0080           0
    2565 QQQ  161  NMP  N2   NG2R53    -0.098000       14.0070           0
    2566 QQQ  161  NMP  C3   CG3C52    -0.077000       12.0110           0
    2567 QQQ  161  NMP  H4   HGA2       0.090000        1.0080           0
    2568 QQQ  161  NMP  H5   HGA2       0.090000        1.0080           0
    2569 QQQ  161  NMP  C4   CG3C52    -0.233000       12.0110           0
    2570 QQQ  161  NMP  H6   HGA2       0.090000        1.0080           0
    2571 QQQ  161  NMP  H7   HGA2       0.090000        1.0080           0
    2572 QQQ  161  NMP  C5   CG3C52    -0.027000       12.0110           0
    2573 QQQ  161  NMP  H8   HGA2       0.090000        1.0080           0
    2574 QQQ  161  NMP  H9   HGA2       0.090000        1.0080           0
    2575 QQQ  161  NMP  C6   CG2R53     0.286000       12.0110           0
    2576 QQQ  161  NMP  O7   OG2D1     -0.500000       15.9990           0
    2577 QQQ  162  NMP  C1   CG331     -0.161000       12.0110           0
    2578 QQQ  162  NMP  H1   HGA3       0.090000        1.0080           0
    2579 QQQ  162  NMP  H2   HGA3       0.090000        1.0080           0
    2580 QQQ  162  NMP  H3   HGA3       0.090000        1.0080           0
    2581 QQQ  162  NMP  N2   NG2R53    -0.098000       14.0070           0
    2582 QQQ  162  NMP  C3   CG3C52    -0.077000       12.0110           0
    2583 QQQ  162  NMP  H4   HGA2       0.090000        1.0080           0
    2584 QQQ  162  NMP  H5   HGA2       0.090000        1.0080           0
    2585 QQQ  162  NMP  C4   CG3C52    -0.233000       12.0110           0
    2586 QQQ  162  NMP  H6   HGA2       0.090000        1.0080           0
    2587 QQQ  162  NMP  H7   HGA2       0.090000        1.0080           0
    2588 QQQ  162  NMP  C5   CG3C52    -0.027000       12.0110           0
    2589 QQQ  162  NMP  H8   HGA2       0.090000        1.0080           0
    2590 QQQ  162  NMP  H9   HGA2       0.090000        1.0080           0
    2591 QQQ  162  NMP  C6   CG2R53     0.286000       12.0110           0
    2592 QQQ  162  NMP  O7   OG2D1     -0.500000       15.9990           0
    2593 QQQ  163  NMP  C1   CG331     -0.161000       12.0110           0
    2594 QQQ  163  NMP  H1   HGA3       0.090000        1.0080           0
    2595 QQQ  163  NMP  H2   HGA3       0.090000        1.0080           0
    2596 QQQ  163  NMP  H3   HGA3       0.090000        1.0080           0
    2597 QQQ  163  NMP  N2   NG2R53    -0.098000       14.0070           0
    2598 QQQ  163  NMP  C3   CG3C52    -0.077000       12.0110           0
    2599 QQQ  163  NMP  H4   HGA2       0.090000        1.0080           0
    2600 QQQ  163  NMP  H5   HGA2       0.090000        1.0080           0
    2601 QQQ  163  NMP  C4   CG3C52    -0.233000       12.0110           0
    2602 QQQ  163  NMP  H6   HGA2       0.090000        1.0080           0
    2603 QQQ  163  NMP  H7   HGA2       0.090000        1.0080           0
    2604 QQQ  163  NMP  C5   CG3C52    -0.027000       12.0110           0
    2605 QQQ  163  NMP  H8   HGA2       0.090000        1.0080           0
    2606 QQQ  163  NMP  H9   HGA2       0.090000        1.0080           0
    2607 QQQ  163  NMP  C6   CG2R53     0.286000       12.0110           0
    2608 QQQ  163  NMP  O7   OG2D1     -0.500000       15.9990           0
    2609 QQQ  164  NMP  C1   CG331     -0.161000       12.0110           0
    2610 QQQ  164  NMP  H1   HGA3       0.090000        1.0080           0
    2611 QQQ  164  NMP  H2   HGA3       0.090000        1.0080           0
    2612 QQQ  164  NMP  H3   HGA3       0.090000        1.0080           0
    2613 QQQ  164  NMP  N2   NG2R53    -0.098000       14.0070           0
    2614 QQQ  164  NMP  C3   CG3C52    -0.077000       12.0110           0
    2615 QQQ  164  NMP  H4   HGA2       0.090000        1.0080           0
    2616 QQQ  164  NMP  H5   HGA2       0.090000        1.0080           0
    2617 QQQ  164  NMP  C4   CG3C52    -0.233000       12.0110           0
    2618 QQQ  164  NMP  H6   HGA2       0.090000        1.0080           0
    2619 QQQ  164  NMP  H7   HGA2       0.090000        1.0080           0
    2620 QQQ  164  NMP  C5   CG3C52    -0.027000       12.0110           0
    2621 QQQ  164  NMP  H8   HGA2       0.090000        1.0080           0
    2622 QQQ  164  NMP  H9   HGA2       0.090000        1.0080           0
    2623 QQQ  164  NMP  C6   CG2R53     0.286000       12.0110           0
    2624 QQQ  164  NMP  O7   OG2D1     -0.500000       15.9990           0
    2625 QQQ  165  NMP  C1   CG331     -0.161000       12.0110           0
    2626 QQQ  165  NMP  H1   HGA3       0.090000        1.0080           0
    2627 QQQ  165  NMP  H2   HGA3       0.090000        1.0080           0
    2628 QQQ  165  NMP  H3   HGA3       0.090000        1.0080           0
    2629 QQQ  165  NMP  N2   NG2R53    -0.098000       14.0070           0
    2630 QQQ  165  NMP  C3   CG3C52    -0.077000       12.0110           0
    2631 QQQ  165  NMP  H4   HGA2       0.090000        1.0080           0
    2632 QQQ  165  NMP  H5   HGA2       0.090000        1.0080           0
    2633 QQQ  165  NMP  C4   CG3C52    -0.233000       12.0110           0
    2634 QQQ  165  NMP  H6   HGA2       0.090000        1.0080           0
    2635 QQQ  165  NMP  H7   HGA2       0.090000        1.0080           0
    2636 QQQ  165  NMP  C5   CG3C52    -0.027000       12.0110           0
    2637 QQQ  165  NMP  H8   HGA2       0.090000        1.0080           0
    2638 QQQ  165  NMP  H9   HGA2       0.090000        1.0080           0
    2639 QQQ  165  NMP  C6   CG2R53     0.286000       12.0110           0
    2640 QQQ  165  NMP  O7   OG2D1     -0.500000       15.9990           0
    2641 QQQ  166  NMP  C1   CG331     -0.161000       12.0110           0
    2642 QQQ  166  NMP  H1   HGA3       0.090000        1.0080           0
    2643 QQQ  166  NMP  H2   HGA3       0.090000        1.0080           0
    2644 QQQ  166  NMP  H3   HGA3       0.090000        1.0080           0
    2645 QQQ  166  NMP  N2   NG2R53    -0.098000       14.0070           0
    2646 QQQ  166  NMP  C3   CG3C52    -0.077000       12.0110           0
    2647 QQQ  166  NMP  H4   HGA2       0.090000        1.0080           0
    2648 QQQ  166  NMP  H5   HGA2       0.090000        1.0080           0
    2649 QQQ  166  NMP  C4   CG3C52    -0.233000       12.0110           0
    2650 QQQ  166  NMP  H6   HGA2       0.090000        1.0080           0
    2651 QQQ  166  NMP  H7   HGA2       0.090000        1.0080           0
    2652 QQQ  166  NMP  C5   CG3C52    -0.027000       12.0110           0
    2653 QQQ  166  NMP  H8   HGA2       0.090000        1.0080           0
    2654 QQQ  166  NMP  H9   HGA2       0.090000        1.0080           0
    2655 QQQ  166  NMP  C6   CG2R53     0.286000       12.0110           0
    2656 QQQ  166  NMP  O7   OG2D1     -0.500000       15.9990           0
    2657 QQQ  167  NMP  C1   CG331     -0.161000       12.0110           0
    2658 QQQ  167  NMP  H1   HGA3       0.090000        1.0080           0
    2659 QQQ  167  NMP  H2   HGA3       0.090000        1.0080           0
    2660 QQQ  167  NMP  H3   HGA3       0.090000        1.0080           0
    2661 QQQ  167  NMP  N2   NG2R53    -0.098000       14.0070           0
    2662 QQQ  167  NMP  C3   CG3C52    -0.077000       12.0110           0
    2663 QQQ  167  NMP  H4   HGA2       0.090000        1.0080           0
    2664 QQQ  167  NMP  H5   HGA2       0.090000        1.0080           0
    2665 QQQ  167  NMP  C4   CG3C52    -0.233000       12.0110           0
    2666 QQQ  167  NMP  H6   HGA2       0.090000        1.0080           0
    2667 QQQ  167  NMP  H7   HGA2       0.090000        1.0080           0
    2668 QQQ  167  NMP  C5   CG3C52    -0.027000       12.0110           0
    2669 QQQ  167  NMP  H8   HGA2       0.090000        1.0080           0
    2670 QQQ  167  NMP  H9   HGA2       0.090000        1.0080           0
    2671 QQQ  167  NMP  C6   CG2R53     0.286000       12.0110           0
    2672 QQQ  167  NMP  O7   OG2D1     -0.500000       15.9990           0
    2673 QQQ  168  NMP  C1   CG331     -0.161000       12.0110           0
    2674 QQQ  168  NMP  H1   HGA3       0.090000        1.0080           0
    2675 QQQ  168  NMP  H2   HGA3       0.090000        1.0080           0
    2676 QQQ  168  NMP  H3   HGA3       0.090000        1.0080           0
    2677 QQQ  168  NMP  N2   NG2R53    -0.098000       14.0070           0
    2678 QQQ  168  NMP  C3   CG3C52    -0.077000       12.0110           0
    2679 QQQ  168  NMP  H4   HGA2       0.090000        1.0080           0
    2680 QQQ  168  NMP  H5   HGA2       0.090000        1.0080           0
    2681 QQQ  168  NMP  C4   CG3C52    -0.233000       12.0110           0
    2682 QQQ  168  NMP  H6   HGA2       0.090000        1.0080           0
    2683 QQQ  168  NMP  H7   HGA2       0.090000        1.0080           0
    2684 QQQ  168  NMP  C5   CG3C52    -0.027000       12.0110           0
    2685 QQQ  168  NMP  H8   HGA2       0.090000        1.0080           0
    2686 QQQ  168  NMP  H9   HGA2       0.090000        1.0080           0
    2687 QQQ  168  NMP  C6   CG2R53     0.286000       12.0110           0
    2688 QQQ  168  NMP  O7   OG2D1     -0.500000       15.9990           0
    2689 QQQ  169  NMP  C1   CG331     -0.161000       12.0110           0
    2690 QQQ  169  NMP  H1   HGA3       0.090000        1.0080           0
    2691 QQQ  169  NMP  H2   HGA3       0.090000        1.0080           0
    2692 QQQ  169  NMP  H3   HGA3       0.090000        1.0080           0
    2693 QQQ  169  NMP  N2   NG2R53    -0.098000       14.0070           0
    2694 QQQ  169  NMP  C3   CG3C52    -0.077000       12.0110           0
    2695 QQQ  169  NMP  H4   HGA2       0.090000        1.0080           0
    2696 QQQ  169  NMP  H5   HGA2       0.090000        1.0080           0
    2697 QQQ  169  NMP  C4   CG3C52    -0.233000       12.0110           0
    2698 QQQ  169  NMP  H6   HGA2       0.090000        1.0080           0
    2699 QQQ  169  NMP  H7   HGA2       0.090000        1.0080           0
    2700 QQQ  169  NMP  C5   CG3C52    -0.027000       12.0110           0
    2701 QQQ  169  NMP  H8   HGA2       0.090000        1.0080           0
    2702 QQQ  169  NMP  H9   HGA2       0.090000        1.0080           0
    2703 QQQ  169  NMP  C6   CG2R53     0.286000       12.0110           0
    2704 QQQ  169  NMP  O7   OG2D1     -0.500000       15.9990           0
    2705 QQQ  170  NMP  C1   CG331     -0.161000       12.0110           0
    2706 QQQ  170  NMP  H1   HGA3       0.090000        1.0080           0
    2707 QQQ  170  NMP  H2   HGA3       0.090000        1.0080           0
    2708 QQQ  170  NMP  H3   HGA3       0.090000        1.0080           0
    2709 QQQ  170  NMP  N2   NG2R53    -0.098000       14.0070           0
    2710 QQQ  170  NMP  C3   CG3C52    -0.077000       12.0110           0
    2711 QQQ  170  NMP  H4   HGA2       0.090000        1.0080           0
    2712 QQQ  170  NMP  H5   HGA2       0.090000        1.0080           0
    2713 QQQ  170  NMP  C4   CG3C52    -0.233000       12.0110           0
    2714 QQQ  170  NMP  H6   HGA2       0.090000        1.0080           0
    2715 QQQ  170  NMP  H7   HGA2       0.090000        1.0080           0
    2716 QQQ  170  NMP  C5   CG3C52    -0.027000       12.0110           0
    2717 QQQ  170  NMP  H8   HGA2       0.090000        1.0080           0
    2718 QQQ  170  NMP  H9   HGA2       0.090000        1.0080           0
    2719 QQQ  170  NMP  C6   CG2R53     0.286000       12.0110           0
    2720 QQQ  170  NMP  O7   OG2D1     -0.500000       15.9990           0
    2721 QQQ  171  NMP  C1   CG331     -0.161000       12.0110           0
    2722 QQQ  171  NMP  H1   HGA3       0.090000        1.0080           0
    2723 QQQ  171  NMP  H2   HGA3       0.090000        1.0080           0
    2724 QQQ  171  NMP  H3   HGA3       0.090000        1.0080           0
    2725 QQQ  171  NMP  N2   NG2R53    -0.098000       14.0070           0
    2726 QQQ  171  NMP  C3   CG3C52    -0.077000       12.0110           0
    2727 QQQ  171  NMP  H4   HGA2       0.090000        1.0080           0
    2728 QQQ  171  NMP  H5   HGA2       0.090000        1.0080           0
    2729 QQQ  171  NMP  C4   CG3C52    -0.233000       12.0110           0
    2730 QQQ  171  NMP  H6   HGA2       0.090000        1.0080           0
    2731 QQQ  171  NMP  H7   HGA2       0.090000        1.0080           0
    2732 QQQ  171  NMP  C5   CG3C52    -0.027000       12.0110           0
    2733 QQQ  171  NMP  H8   HGA2       0.090000        1.0080           0
    2734 QQQ  171  NMP  H9   HGA2       0.090000        1.0080           0
    2735 QQQ  171  NMP  C6   CG2R53     0.286000       12.0110           0
    2736 QQQ  171  NMP  O7   OG2D1     -0.500000       15.9990           0
    2737 QQQ  172  NMP  C1   CG331     -0.161000       12.0110           0
    2738 QQQ  172  NMP  H1   HGA3       0.090000        1.0080           0
    2739 QQQ  172  NMP  H2   HGA3       0.090000        1.0080           0
    2740 QQQ  172  NMP  H3   HGA3       0.090000        1.0080           0
    2741 QQQ  172  NMP  N2   NG2R53    -0.098000       14.0070           0
    2742 QQQ  172  NMP  C3   CG3C52    -0.077000       12.0110           0
    2743 QQQ  172  NMP  H4   HGA2       0.090000        1.0080           0
    2744 QQQ  172  NMP  H5   HGA2       0.090000        1.0080           0
    2745 QQQ  172  NMP  C4   CG3C52    -0.233000       12.0110           0
    2746 QQQ  172  NMP  H6   HGA2       0.090000        1.0080           0
    2747 QQQ  172  NMP  H7   HGA2       0.090000        1.0080           0
    2748 QQQ  172  NMP  C5   CG3C52    -0.027000       12.0110           0
    2749 QQQ  172  NMP  H8   HGA2       0.090000        1.0080           0
    2750 QQQ  172  NMP  H9   HGA2       0.090000        1.0080           0
    2751 QQQ  172  NMP  C6   CG2R53     0.286000       12.0110           0
    2752 QQQ  172  NMP  O7   OG2D1     -0.500000       15.9990           0
    2753 QQQ  173  NMP  C1   CG331     -0.161000       12.0110           0
    2754 QQQ  173  NMP  H1   HGA3       0.090000        1.0080           0
    2755 QQQ  173  NMP  H2   HGA3       0.090000        1.0080           0
    2756 QQQ  173  NMP  H3   HGA3       0.090000        1.0080           0
    2757 QQQ  173  NMP  N2   NG2R53    -0.098000       14.0070           0
    2758 QQQ  173  NMP  C3   CG3C52    -0.077000       12.0110           0
    2759 QQQ  173  NMP  H4   HGA2       0.090000        1.0080           0
    2760 QQQ  173  NMP  H5   HGA2       0.090000        1.0080           0
    2761 QQQ  173  NMP  C4   CG3C52    -0.233000       12.0110           0
    2762 QQQ  173  NMP  H6   HGA2       0.090000        1.0080           0
    2763 QQQ  173  NMP  H7   HGA2       0.090000        1.0080           0
    2764 QQQ  173  NMP  C5   CG3C52    -0.027000       12.0110           0
    2765 QQQ  173  NMP  H8   HGA2       0.090000        1.0080           0
    2766 QQQ  173  NMP  H9   HGA2       0.090000        1.0080           0
    2767 QQQ  173  NMP  C6   CG2R53     0.286000       12.0110           0
    2768 QQQ  173  NMP  O7   OG2D1     -0.500000       15.9990           0
    2769 QQQ  174  NMP  C1   CG331     -0.161000       12.0110           0
    2770 QQQ  174  NMP  H1   HGA3       0.090000        1.0080           0
    2771 QQQ  174  NMP  H2   HGA3       0.090000        1.0080           0
    2772 QQQ  174  NMP  H3   HGA3       0.090000        1.0080           0
    2773 QQQ  174  NMP  N2   NG2R53    -0.098000       14.0070           0
    2774 QQQ  174  NMP  C3   CG3C52    -0.077000       12.0110           0
    2775 QQQ  174  NMP  H4   HGA2       0.090000        1.0080           0
    2776 QQQ  174  NMP  H5   HGA2       0.090000        1.0080           0
    2777 QQQ  174  NMP  C4   CG3C52    -0.233000       12.0110           0
    2778 QQQ  174  NMP  H6   HGA2       0.090000        1.0080           0
    2779 QQQ  174  NMP  H7   HGA2       0.090000        1.0080           0
    2780 QQQ  174  NMP  C5   CG3C52    -0.027000       12.0110           0
    2781 QQQ  174  NMP  H8   HGA2       0.090000        1.0080           0
    2782 QQQ  174  NMP  H9   HGA2       0.090000        1.0080           0
    2783 QQQ  174  NMP  C6   CG2R53     0.286000       12.0110           0
    2784 QQQ  174  NMP  O7   OG2D1     -0.500000       15.9990           0
    2785 QQQ  175  NMP  C1   CG331     -0.161000       12.0110           0
    2786 QQQ  175  NMP  H1   HGA3       0.090000        1.0080           0
    2787 QQQ  175  NMP  H2   HGA3       0.090000        1.0080           0
    2788 QQQ  175  NMP  H3   HGA3       0.090000        1.0080           0
    2789 QQQ  175  NMP  N2   NG2R53    -0.098000       14.0070           0
    2790 QQQ  175  NMP  C3   CG3C52    -0.077000       12.0110           0
    2791 QQQ  175  NMP  H4   HGA2       0.090000        1.0080           0
    2792 QQQ  175  NMP  H5   HGA2       0.090000        1.0080           0
    2793 QQQ  175  NMP  C4   CG3C52    -0.233000       12.0110           0
    2794 QQQ  175  NMP  H6   HGA2       0.090000        1.0080           0
    2795 QQQ  175  NMP  H7   HGA2       0.090000        1.0080           0
    2796 QQQ  175  NMP  C5   CG3C52    -0.027000       12.0110           0
    2797 QQQ  175  NMP  H8   HGA2       0.090000        1.0080           0
    2798 QQQ  175  NMP  H9   HGA2       0.090000        1.0080           0
    2799 QQQ  175  NMP  C6   CG2R53     0.286000       12.0110           0
    2800 QQQ  175  NMP  O7   OG2D1     -0.500000       15.9990           0
    2801 QQQ  176  NMP  C1   CG331     -0.161000       12.0110           0
    2802 QQQ  176  NMP  H1   HGA3       0.090000        1.0080           0
    2803 QQQ  176  NMP  H2   HGA3       0.090000        1.0080           0
    2804 QQQ  176  NMP  H3   HGA3       0.090000        1.0080           0
    2805 QQQ  176  NMP  N2   NG2R53    -0.098000       14.0070           0
    2806 QQQ  176  NMP  C3   CG3C52    -0.077000       12.0110           0
    2807 QQQ  176  NMP  H4   HGA2       0.090000        1.0080           0
    2808 QQQ  176  NMP  H5   HGA2       0.090000        1.0080           0
    2809 QQQ  176  NMP  C4   CG3C52    -0.233000       12.0110           0
    2810 QQQ  176  NMP  H6   HGA2       0.090000        1.0080           0
    2811 QQQ  176  NMP  H7   HGA2       0.090000        1.0080           0
    2812 QQQ  176  NMP  C5   CG3C52    -0.027000       12.0110           0
    2813 QQQ  176  NMP  H8   HGA2       0.090000        1.0080           0
    2814 QQQ  176  NMP  H9   HGA2       0.090000        1.0080           0
    2815 QQQ  176  NMP  C6   CG2R53     0.286000       12.0110           0
    2816 QQQ  176  NMP  O7   OG2D1     -0.500000       15.9990           0
    2817 QQQ  177  NMP  C1   CG331     -0.161000       12.0110           0
    2818 QQQ  177  NMP  H1   HGA3       0.090000        1.0080           0
    2819 QQQ  177  NMP  H2   HGA3       0.090000        1.0080           0
    2820 QQQ  177  NMP  H3   HGA3       0.090000        1.0080           0
    2821 QQQ  177  NMP  N2   NG2R53    -0.098000       14.0070           0
    2822 QQQ  177  NMP  C3   CG3C52    -0.077000       12.0110           0
    2823 QQQ  177  NMP  H4   HGA2       0.090000        1.0080           0
    2824 QQQ  177  NMP  H5   HGA2       0.090000        1.0080           0
    2825 QQQ  177  NMP  C4   CG3C52    -0.233000       12.0110           0
    2826 QQQ  177  NMP  H6   HGA2       0.090000        1.0080           0
    2827 QQQ  177  NMP  H7   HGA2       0.090000        1.0080           0
    2828 QQQ  177  NMP  C5   CG3C52    -0.027000       12.0110           0
    2829 QQQ  177  NMP  H8   HGA2       0.090000        1.0080           0
    2830 QQQ  177  NMP  H9   HGA2       0.090000        1.0080           0
    2831 QQQ  177  NMP  C6   CG2R53     0.286000       12.0110           0
    2832 QQQ  177  NMP  O7   OG2D1     -0.500000       15.9990           0
    2833 QQQ  178  NMP  C1   CG331     -0.161000       12.0110           0
    2834 QQQ  178  NMP  H1   HGA3       0.090000        1.0080           0
    2835 QQQ  178  NMP  H2   HGA3       0.090000        1.0080           0
    2836 QQQ  178  NMP  H3   HGA3       0.090000        1.0080           0
    2837 QQQ  178  NMP  N2   NG2R53    -0.098000       14.0070           0
    2838 QQQ  178  NMP  C3   CG3C52    -0.077000       12.0110           0
    2839 QQQ  178  NMP  H4   HGA2       0.090000        1.0080           0
    2840 QQQ  178  NMP  H5   HGA2       0.090000        1.0080           0
    2841 QQQ  178  NMP  C4   CG3C52    -0.233000       12.0110           0
    2842 QQQ  178  NMP  H6   HGA2       0.090000        1.0080           0
    2843 QQQ  178  NMP  H7   HGA2       0.090000        1.0080           0
    2844 QQQ  178  NMP  C5   CG3C52    -0.027000       12.0110           0
    2845 QQQ  178  NMP  H8   HGA2       0.090000        1.0080           0
    2846 QQQ  178  NMP  H9   HGA2       0.090000        1.0080           0
    2847 QQQ  178  NMP  C6   CG2R53     0.286000       12.0110           0
    2848 QQQ  178  NMP  O7   OG2D1     -0.500000       15.9990           0
    2849 QQQ  179  NMP  C1   CG331     -0.161000       12.0110           0
    2850 QQQ  179  NMP  H1   HGA3       0.090000        1.0080           0
    2851 QQQ  179  NMP  H2   HGA3       0.090000        1.0080           0
    2852 QQQ  179  NMP  H3   HGA3       0.090000        1.0080           0
    2853 QQQ  179  NMP  N2   NG2R53    -0.098000       14.0070           0
    2854 QQQ  179  NMP  C3   CG3C52    -0.077000       12.0110           0
    2855 QQQ  179  NMP  H4   HGA2       0.090000        1.0080           0
    2856 QQQ  179  NMP  H5   HGA2       0.090000        1.0080           0
    2857 QQQ  179  NMP  C4   CG3C52    -0.233000       12.0110           0
    2858 QQQ  179  NMP  H6   HGA2       0.090000        1.0080           0
    2859 QQQ  179  NMP  H7   HGA2       0.090000        1.0080           0
    2860 QQQ  179  NMP  C5   CG3C52    -0.027000       12.0110           0
    2861 QQQ  179  NMP  H8   HGA2       0.090000        1.0080           0
    2862 QQQ  179  NMP  H9   HGA2       0.090000        1.0080           0
    2863 QQQ  179  NMP  C6   CG2R53     0.286000       12.0110           0
    2864 QQQ  179  NMP  O7   OG2D1     -0.500000       15.9990           0
    2865 QQQ  180  NMP  C1   CG331     -0.161000       12.0110           0
    2866 QQQ  180  NMP  H1   HGA3       0.090000        1.0080           0
    2867 QQQ  180  NMP  H2   HGA3       0.090000        1.0080           0
    2868 QQQ  180  NMP  H3   HGA3       0.090000        1.0080           0
    2869 QQQ  180  NMP  N2   NG2R53    -0.098000       14.0070           0
    2870 QQQ  180  NMP  C3   CG3C52    -0.077000       12.0110           0
    2871 QQQ  180  NMP  H4   HGA2       0.090000        1.0080           0
    2872 QQQ  180  NMP  H5   HGA2       0.090000        1.0080           0
    2873 QQQ  180  NMP  C4   CG3C52    -0.233000       12.0110           0
    2874 QQQ  180  NMP  H6   HGA2       0.090000        1.0080           0
    2875 QQQ  180  NMP  H7   HGA2       0.090000        1.0080           0
    2876 QQQ  180  NMP  C5   CG3C52    -0.027000       12.0110           0
    2877 QQQ  180  NMP  H8   HGA2       0.090000        1.0080           0
    2878 QQQ  180  NMP  H9   HGA2       0.090000        1.0080           0
    2879 QQQ  180  NMP  C6   CG2R53     0.286000       12.0110           0
    2880 QQQ  180  NMP  O7   OG2D1     -0.500000       15.9990           0
    2881 QQQ  181  NMP  C1   CG331     -0.161000       12.0110           0
    2882 QQQ  181  NMP  H1   HGA3       0.090000        1.0080           0
    2883 QQQ  181  NMP  H2   HGA3       0.090000        1.0080           0
    2884 QQQ  181  NMP  H3   HGA3       0.090000        1.0080           0
    2885 QQQ  181  NMP  N2   NG2R53    -0.098000       14.0070           0
    2886 QQQ  181  NMP  C3   CG3C52    -0.077000       12.0110           0
    2887 QQQ  181  NMP  H4   HGA2       0.090000        1.0080           0
    2888 QQQ  181  NMP  H5   HGA2       0.090000        1.0080           0
    2889 QQQ  181  NMP  C4   CG3C52    -0.233000       12.0110           0
    2890 QQQ  181  NMP  H6   HGA2       0.090000        1.0080           0
    2891 QQQ  181  NMP  H7   HGA2       0.090000        1.0080           0
    2892 QQQ  181  NMP  C5   CG3C52    -0.027000       12.0110           0
    2893 QQQ  181  NMP  H8   HGA2       0.090000        1.0080           0
    2894 QQQ  181  NMP  H9   HGA2       0.090000        1.0080           0
    2895 QQQ  181  NMP  C6   CG2R53     0.286000       12.0110           0
    2896 QQQ  181  NMP  O7   OG2D1     -0.500000       15.9990           0
    2897 QQQ  182  NMP  C1   CG331     -0.161000       12.0110           0
    2898 QQQ  182  NMP  H1   HGA3       0.090000        1.0080           0
    2899 QQQ  182  NMP  H2   HGA3       0.090000        1.0080           0
    2900 QQQ  182  NMP  H3   HGA3       0.090000        1.0080           0
    2901 QQQ  182  NMP  N2   NG2R53    -0.098000       14.0070           0
    2902 QQQ  182  NMP  C3   CG3C52    -0.077000       12.0110           0
    2903 QQQ  182  NMP  H4   HGA2       0.090000        1.0080           0
    2904 QQQ  182  NMP  H5   HGA2       0.090000        1.0080           0
    2905 QQQ  182  NMP  C4   CG3C52    -0.233000       12.0110           0
    2906 QQQ  182  NMP  H6   HGA2       0.090000        1.0080           0
    2907 QQQ  182  NMP  H7   HGA2       0.090000        1.0080           0
    2908 QQQ  182  NMP  C5   CG3C52    -0.027000       12.0110           0
    2909 QQQ  182  NMP  H8   HGA2       0.090000        1.0080           0
    2910 QQQ  182  NMP  H9   HGA2       0.090000        1.0080           0
    2911 QQQ  182  NMP  C6   CG2R53     0.286000       12.0110           0
    2912 QQQ  182  NMP  O7   OG2D1     -0.500000       15.9990           0
    2913 QQQ  183  NMP  C1   CG331     -0.161000       12.0110           0
    2914 QQQ  183  NMP  H1   HGA3       0.090000        1.0080           0
    2915 QQQ  183  NMP  H2   HGA3       0.090000        1.0080           0
    2916 QQQ  183  NMP  H3   HGA3       0.090000        1.0080           0
    2917 QQQ  183  NMP  N2   NG2R53    -0.098000       14.0070           0
    2918 QQQ  183  NMP  C3   CG3C52    -0.077000       12.0110           0
    2919 QQQ  183  NMP  H4   HGA2       0.090000        1.0080           0
    2920 QQQ  183  NMP  H5   HGA2       0.090000        1.0080           0
    2921 QQQ  183  NMP  C4   CG3C52    -0.233000       12.0110           0
    2922 QQQ  183  NMP  H6   HGA2       0.090000        1.0080           0
    2923 QQQ  183  NMP  H7   HGA2       0.090000        1.0080           0
    2924 QQQ  183  NMP  C5   CG3C52    -0.027000       12.0110           0
    2925 QQQ  183  NMP  H8   HGA2       0.090000        1.0080           0
    2926 QQQ  183  NMP  H9   HGA2       0.090000        1.0080           0
    2927 QQQ  183  NMP  C6   CG2R53     0.286000       12.0110           0
    2928 QQQ  183  NMP  O7   OG2D1     -0.500000       15.9990           0
    2929 QQQ  184  NMP  C1   CG331     -0.161000       12.0110           0
    2930 QQQ  184  NMP  H1   HGA3       0.090000        1.0080           0
    2931 QQQ  184  NMP  H2   HGA3       0.090000        1.0080           0
    2932 QQQ  184  NMP  H3   HGA3       0.090000        1.0080           0
    2933 QQQ  184  NMP  N2   NG2R53    -0.098000       14.0070           0
    2934 QQQ  184  NMP  C3   CG3C52    -0.077000       12.0110           0
    2935 QQQ  184  NMP  H4   HGA2       0.090000        1.0080           0
    2936 QQQ  184  NMP  H5   HGA2       0.090000        1.0080           0
    2937 QQQ  184  NMP  C4   CG3C52    -0.233000       12.0110           0
    2938 QQQ  184  NMP  H6   HGA2       0.090000        1.0080           0
    2939 QQQ  184  NMP  H7   HGA2       0.090000        1.0080           0
    2940 QQQ  184  NMP  C5   CG3C52    -0.027000       12.0110           0
    2941 QQQ  184  NMP  H8   HGA2       0.090000        1.0080           0
    2942 QQQ  184  NMP  H9   HGA2       0.090000        1.0080           0
    2943 QQQ  184  NMP  C6   CG2R53     0.286000       12.0110           0
    2944 QQQ  184  NMP  O7   OG2D1     -0.500000       15.9990           0
    2945 QQQ  185  NMP  C1   CG331     -0.161000       12.0110           0
    2946 QQQ  185  NMP  H1   HGA3       0.090000        1.0080           0
    2947 QQQ  185  NMP  H2   HGA3       0.090000        1.0080           0
    2948 QQQ  185  NMP  H3   HGA3       0.090000        1.0080           0
    2949 QQQ  185  NMP  N2   NG2R53    -0.098000       14.0070           0
    2950 QQQ  185  NMP  C3   CG3C52    -0.077000       12.0110           0
    2951 QQQ  185  NMP  H4   HGA2       0.090000        1.0080           0
    2952 QQQ  185  NMP  H5   HGA2       0.090000        1.0080           0
    2953 QQQ  185  NMP  C4   CG3C52    -0.233000       12.0110           0
    2954 QQQ  185  NMP  H6   HGA2       0.090000        1.0080           0
    2955 QQQ  185  NMP  H7   HGA2       0.090000        1.0080           0
    2956 QQQ  185  NMP  C5   CG3C52    -0.027000       12.0110           0
    2957 QQQ  185  NMP  H8   HGA2       0.090000        1.0080           0
    2958 QQQ  185  NMP  H9   HGA2       0.090000        1.0080           0
    2959 QQQ  185  NMP  C6   CG2R53     0.286000       12.0110           0
    2960 QQQ  185  NMP  O7   OG2D1     -0.500000       15.9990           0
    2961 QQQ  186  NMP  C1   CG331     -0.161000       12.0110           0
    2962 QQQ  186  NMP  H1   HGA3       0.090000        1.0080           0
    2963 QQQ  186  NMP  H2   HGA3       0.090000        1.0080           0
    2964 QQQ  186  NMP  H3   HGA3       0.090000        1.0080           0
    2965 QQQ  186  NMP  N2   NG2R53    -0.098000       14.0070           0
    2966 QQQ  186  NMP  C3   CG3C52    -0.077000       12.0110           0
    2967 QQQ  186  NMP  H4   HGA2       0.090000        1.0080           0
    2968 QQQ  186  NMP  H5   HGA2       0.090000        1.0080           0
    2969 QQQ  186  NMP  C4   CG3C52    -0.233000       12.0110           0
    2970 QQQ  186  NMP  H6   HGA2       0.090000        1.0080           0
    2971 QQQ  186  NMP  H7   HGA2       0.090000        1.0080           0
    2972 QQQ  186  NMP  C5   CG3C52    -0.027000       12.0110           0
    2973 QQQ  186  NMP  H8   HGA2       0.090000        1.0080           0
    2974 QQQ  186  NMP  H9   HGA2       0.090000        1.0080           0
    2975 QQQ  186  NMP  C6   CG2R53     0.286000       12.0110           0
    2976 QQQ  186  NMP  O7   OG2D1     -0.500000       15.9990           0
    2977 QQQ  187  NMP  C1   CG331     -0.161000       12.0110           0
    2978 QQQ  187  NMP  H1   HGA3       0.090000        1.0080           0
    2979 QQQ  187  NMP  H2   HGA3       0.090000        1.0080           0
    2980 QQQ  187  NMP  H3   HGA3       0.090000        1.0080           0
    2981 QQQ  187  NMP  N2   NG2R53    -0.098000       14.0070           0
    2982 QQQ  187  NMP  C3   CG3C52    -0.077000       12.0110           0
    2983 QQQ  187  NMP  H4   HGA2       0.090000        1.0080           0
    2984 QQQ  187  NMP  H5   HGA2       0.090000        1.0080           0
    2985 QQQ  187  NMP  C4   CG3C52    -0.233000       12.0110           0
    2986 QQQ  187  NMP  H6   HGA2       0.090000        1.0080           0
    2987 QQQ  187  NMP  H7   HGA2       0.090000        1.0080           0
    2988 QQQ  187  NMP  C5   CG3C52    -0.027000       12.0110           0
    2989 QQQ  187  NMP  H8   HGA2       0.090000        1.0080           0
    2990 QQQ  187  NMP  H9   HGA2       0.090000        1.0080           0
    2991 QQQ  187  NMP  C6   CG2R53     0.286000       12.0110           0
    2992 QQQ  187  NMP  O7   OG2D1     -0.500000       15.9990           0
    2993 QQQ  188  NMP  C1   CG331     -0.161000       12.0110           0
    2994 QQQ  188  NMP  H1   HGA3       0.090000        1.0080           0
    2995 QQQ  188  NMP  H2   HGA3       0.090000        1.0080           0
    2996 QQQ  188  NMP  H3   HGA3       0.090000        1.0080           0
    2997 QQQ  188  NMP  N2   NG2R53    -0.098000       14.0070           0
    2998 QQQ  188  NMP  C3   CG3C52    -0.077000       12.0110           0
    2999 QQQ  188  NMP  H4   HGA2       0.090000        1.0080           0
    3000 QQQ  188  NMP  H5   HGA2       0.090000        1.0080           0
    3001 QQQ  188  NMP  C4   CG3C52    -0.233000       12.0110           0
    3002 QQQ  188  NMP  H6   HGA2       0.090000        1.0080           0
    3003 QQQ  188  NMP  H7   HGA2       0.090000        1.0080           0
    3004 QQQ  188  NMP  C5   CG3C52    -0.027000       12.0110           0
    3005 QQQ  188  NMP  H8   HGA2       0.090000        1.0080           0
    3006 QQQ  188  NMP  H9   HGA2       0.090000        1.0080           0
    3007 QQQ  188  NMP  C6   CG2R53     0.286000       12.0110           0
    3008 QQQ  188  NMP  O7   OG2D1     -0.500000       15.9990           0
    3009 QQQ  189  NMP  C1   CG331     -0.161000       12.0110           0
    3010 QQQ  189  NMP  H1   HGA3       0.090000        1.0080           0
    3011 QQQ  189  NMP  H2   HGA3       0.090000        1.0080           0
    3012 QQQ  189  NMP  H3   HGA3       0.090000        1.0080           0
    3013 QQQ  189  NMP  N2   NG2R53    -0.098000       14.0070           0
    3014 QQQ  189  NMP  C3   CG3C52    -0.077000       12.0110           0
    3015 QQQ  189  NMP  H4   HGA2       0.090000        1.0080           0
    3016 QQQ  189  NMP  H5   HGA2       0.090000        1.0080           0
    3017 QQQ  189  NMP  C4   CG3C52    -0.233000       12.0110           0
    3018 QQQ  189  NMP  H6   HGA2       0.090000        1.0080           0
    3019 QQQ  189  NMP  H7   HGA2       0.090000        1.0080           0
    3020 QQQ  189  NMP  C5   CG3C52    -0.027000       12.0110           0
    3021 QQQ  189  NMP  H8   HGA2       0.090000        1.0080           0
    3022 QQQ  189  NMP  H9   HGA2       0.090000        1.0080           0
    3023 QQQ  189  NMP  C6   CG2R53     0.286000       12.0110           0
    3024 QQQ  189  NMP  O7   OG2D1     -0.500000       15.9990           0
    3025 QQQ  190  NMP  C1   CG331     -0.161000       12.0110           0
    3026 QQQ  190  NMP  H1   HGA3       0.090000        1.0080           0
    3027 QQQ  190  NMP  H2   HGA3       0.090000        1.0080           0
    3028 QQQ  190  NMP  H3   HGA3       0.090000        1.0080           0
    3029 QQQ  190  NMP  N2   NG2R53    -0.098000       14.0070           0
    3030 QQQ  190  NMP  C3   CG3C52    -0.077000       12.0110           0
    3031 QQQ  190  NMP  H4   HGA2       0.090000        1.0080           0
    3032 QQQ  190  NMP  H5   HGA2       0.090000        1.0080           0
    3033 QQQ  190  NMP  C4   CG3C52    -0.233000       12.0110           0
    3034 QQQ  190  NMP  H6   HGA2       0.090000        1.0080           0
    3035 QQQ  190  NMP  H7   HGA2       0.090000        1.0080           0
    3036 QQQ  190  NMP  C5   CG3C52    -0.027000       12.0110           0
    3037 QQQ  190  NMP  H8   HGA2       0.090000        1.0080           0
    3038 QQQ  190  NMP  H9   HGA2       0.090000        1.0080           0
    3039 QQQ  190  NMP  C6   CG2R53     0.286000       12.0110           0
    3040 QQQ  190  NMP  O7   OG2D1     -0.500000       15.9990           0
    3041 QQQ  191  NMP  C1   CG331     -0.161000       12.0110           0
    3042 QQQ  191  NMP  H1   HGA3       0.090000        1.0080           0
    3043 QQQ  191  NMP  H2   HGA3       0.090000        1.0080           0
    3044 QQQ  191  NMP  H3   HGA3       0.090000        1.0080           0
    3045 QQQ  191  NMP  N2   NG2R53    -0.098000       14.0070           0
    3046 QQQ  191  NMP  C3   CG3C52    -0.077000       12.0110           0
    3047 QQQ  191  NMP  H4   HGA2       0.090000        1.0080           0
    3048 QQQ  191  NMP  H5   HGA2       0.090000        1.0080           0
    3049 QQQ  191  NMP  C4   CG3C52    -0.233000       12.0110           0
    3050 QQQ  191  NMP  H6   HGA2       0.090000        1.0080           0
    3051 QQQ  191  NMP  H7   HGA2       0.090000        1.0080           0
    3052 QQQ  191  NMP  C5   CG3C52    -0.027000       12.0110           0
    3053 QQQ  191  NMP  H8   HGA2       0.090000        1.0080           0
    3054 QQQ  191  NMP  H9   HGA2       0.090000        1.0080           0
    3055 QQQ  191  NMP  C6   CG2R53     0.286000       12.0110           0
    3056 QQQ  191  NMP  O7   OG2D1     -0.500000       15.9990           0
    3057 QQQ  192  NMP  C1   CG331     -0.161000       12.0110           0
    3058 QQQ  192  NMP  H1   HGA3       0.090000        1.0080           0
    3059 QQQ  192  NMP  H2   HGA3       0.090000        1.0080           0
    3060 QQQ  192  NMP  H3   HGA3       0.090000        1.0080           0
    3061 QQQ  192  NMP  N2   NG2R53    -0.098000       14.0070           0
    3062 QQQ  192  NMP  C3   CG3C52    -0.077000       12.0110           0
    3063 QQQ  192  NMP  H4   HGA2       0.090000        1.0080           0
    3064 QQQ  192  NMP  H5   HGA2       0.090000        1.0080           0
    3065 QQQ  192  NMP  C4   CG3C52    -0.233000       12.0110           0
    3066 QQQ  192  NMP  H6   HGA2       0.090000        1.0080           0
    3067 QQQ  192  NMP  H7   HGA2       0.090000        1.0080           0
    3068 QQQ  192  NMP  C5   CG3C52    -0.027000       12.0110           0
    3069 QQQ  192  NMP  H8   HGA2       0.090000        1.0080           0
    3070 QQQ  192  NMP  H9   HGA2       0.090000        1.0080           0
    3071 QQQ  192  NMP  C6   CG2R53     0.286000       12.0110           0
    3072 QQQ  192  NMP  O7   OG2D1     -0.500000       15.9990           0
    3073 QQQ  193  NMP  C1   CG331     -0.161000       12.0110           0
    3074 QQQ  193  NMP  H1   HGA3       0.090000        1.0080           0
    3075 QQQ  193  NMP  H2   HGA3       0.090000        1.0080           0
    3076 QQQ  193  NMP  H3   HGA3       0.090000        1.0080           0
    3077 QQQ  193  NMP  N2   NG2R53    -0.098000       14.0070           0
    3078 QQQ  193  NMP  C3   CG3C52    -0.077000       12.0110           0
    3079 QQQ  193  NMP  H4   HGA2       0.090000        1.0080           0
    3080 QQQ  193  NMP  H5   HGA2       0.090000        1.0080           0
    3081 QQQ  193  NMP  C4   CG3C52    -0.233000       12.0110           0
    3082 QQQ  193  NMP  H6   HGA2       0.090000        1.0080           0
    3083 QQQ  193  NMP  H7   HGA2       0.090000        1.0080           0
    3084 QQQ  193  NMP  C5   CG3C52    -0.027000       12.0110           0
    3085 QQQ  193  NMP  H8   HGA2       0.090000        1.0080           0
    3086 QQQ  193  NMP  H9   HGA2       0.090000        1.0080           0
    3087 QQQ  193  NMP  C6   CG2R53     0.286000       12.0110           0
    3088 QQQ  193  NMP  O7   OG2D1     -0.500000       15.9990           0
    3089 QQQ  194  NMP  C1   CG331     -0.161000       12.0110           0
    3090 QQQ  194  NMP  H1   HGA3       0.090000        1.0080           0
    3091 QQQ  194  NMP  H2   HGA3       0.090000        1.0080           0
    3092 QQQ  194  NMP  H3   HGA3       0.090000        1.0080           0
    3093 QQQ  194  NMP  N2   NG2R53    -0.098000       14.0070           0
    3094 QQQ  194  NMP  C3   CG3C52    -0.077000       12.0110           0
    3095 QQQ  194  NMP  H4   HGA2       0.090000        1.0080           0
    3096 QQQ  194  NMP  H5   HGA2       0.090000        1.0080           0
    3097 QQQ  194  NMP  C4   CG3C52    -0.233000       12.0110           0
    3098 QQQ  194  NMP  H6   HGA2       0.090000        1.0080           0
    3099 QQQ  194  NMP  H7   HGA2       0.090000        1.0080           0
    3100 QQQ  194  NMP  C5   CG3C52    -0.027000       12.0110           0
    3101 QQQ  194  NMP  H8   HGA2       0.090000        1.0080           0
    3102 QQQ  194  NMP  H9   HGA2       0.090000        1.0080           0
    3103 QQQ  194  NMP  C6   CG2R53     0.286000       12.0110           0
    3104 QQQ  194  NMP  O7   OG2D1     -0.500000       15.9990           0
    3105 QQQ  195  NMP  C1   CG331     -0.161000       12.0110           0
    3106 QQQ  195  NMP  H1   HGA3       0.090000        1.0080           0
    3107 QQQ  195  NMP  H2   HGA3       0.090000        1.0080           0
    3108 QQQ  195  NMP  H3   HGA3       0.090000        1.0080           0
    3109 QQQ  195  NMP  N2   NG2R53    -0.098000       14.0070           0
    3110 QQQ  195  NMP  C3   CG3C52    -0.077000       12.0110           0
    3111 QQQ  195  NMP  H4   HGA2       0.090000        1.0080           0
    3112 QQQ  195  NMP  H5   HGA2       0.090000        1.0080           0
    3113 QQQ  195  NMP  C4   CG3C52    -0.233000       12.0110           0
    3114 QQQ  195  NMP  H6   HGA2       0.090000        1.0080           0
    3115 QQQ  195  NMP  H7   HGA2       0.090000        1.0080           0
    3116 QQQ  195  NMP  C5   CG3C52    -0.027000       12.0110           0
    3117 QQQ  195  NMP  H8   HGA2       0.090000        1.0080           0
    3118 QQQ  195  NMP  H9   HGA2       0.090000        1.0080           0
    3119 QQQ  195  NMP  C6   CG2R53     0.286000       12.0110           0
    3120 QQQ  195  NMP  O7   OG2D1     -0.500000       15.9990           0
    3121 QQQ  196  NMP  C1   CG331     -0.161000       12.0110           0
    3122 QQQ  196  NMP  H1   HGA3       0.090000        1.0080           0
    3123 QQQ  196  NMP  H2   HGA3       0.090000        1.0080           0
    3124 QQQ  196  NMP  H3   HGA3       0.090000        1.0080           0
    3125 QQQ  196  NMP  N2   NG2R53    -0.098000       14.0070           0
    3126 QQQ  196  NMP  C3   CG3C52    -0.077000       12.0110           0
    3127 QQQ  196  NMP  H4   HGA2       0.090000        1.0080           0
    3128 QQQ  196  NMP  H5   HGA2       0.090000        1.0080           0
    3129 QQQ  196  NMP  C4   CG3C52    -0.233000       12.0110           0
    3130 QQQ  196  NMP  H6   HGA2       0.090000        1.0080           0
    3131 QQQ  196  NMP  H7   HGA2       0.090000        1.0080           0
    3132 QQQ  196  NMP  C5   CG3C52    -0.027000       12.0110           0
    3133 QQQ  196  NMP  H8   HGA2       0.090000        1.0080           0
    3134 QQQ  196  NMP  H9   HGA2       0.090000        1.0080           0
    3135 QQQ  196  NMP  C6   CG2R53     0.286000       12.0110           0
    3136 QQQ  196  NMP  O7   OG2D1     -0.500000       15.9990           0
    3137 QQQ  197  NMP  C1   CG331     -0.161000       12.0110           0
    3138 QQQ  197  NMP  H1   HGA3       0.090000        1.0080           0
    3139 QQQ  197  NMP  H2   HGA3       0.090000        1.0080           0
    3140 QQQ  197  NMP  H3   HGA3       0.090000        1.0080           0
    3141 QQQ  197  NMP  N2   NG2R53    -0.098000       14.0070           0
    3142 QQQ  197  NMP  C3   CG3C52    -0.077000       12.0110           0
    3143 QQQ  197  NMP  H4   HGA2       0.090000        1.0080           0
    3144 QQQ  197  NMP  H5   HGA2       0.090000        1.0080           0
    3145 QQQ  197  NMP  C4   CG3C52    -0.233000       12.0110           0
    3146 QQQ  197  NMP  H6   HGA2       0.090000        1.0080           0
    3147 QQQ  197  NMP  H7   HGA2       0.090000        1.0080           0
    3148 QQQ  197  NMP  C5   CG3C52    -0.027000       12.0110           0
    3149 QQQ  197  NMP  H8   HGA2       0.090000        1.0080           0
    3150 QQQ  197  NMP  H9   HGA2       0.090000        1.0080           0
    3151 QQQ  197  NMP  C6   CG2R53     0.286000       12.0110           0
    3152 QQQ  197  NMP  O7   OG2D1     -0.500000       15.9990           0
    3153 QQQ  198  NMP  C1   CG331     -0.161000       12.0110           0
    3154 QQQ  198  NMP  H1   HGA3       0.090000        1.0080           0
    3155 QQQ  198  NMP  H2   HGA3       0.090000        1.0080           0
    3156 QQQ  198  NMP  H3   HGA3       0.090000        1.0080           0
    3157 QQQ  198  NMP  N2   NG2R53    -0.098000       14.0070           0
    3158 QQQ  198  NMP  C3   CG3C52    -0.077000       12.0110           0
    3159 QQQ  198  NMP  H4   HGA2       0.090000        1.0080           0
    3160 QQQ  198  NMP  H5   HGA2       0.090000        1.0080           0
    3161 QQQ  198  NMP  C4   CG3C52    -0.233000       12.0110           0
    3162 QQQ  198  NMP  H6   HGA2       0.090000        1.0080           0
    3163 QQQ  198  NMP  H7   HGA2       0.090000        1.0080           0
    3164 QQQ  198  NMP  C5   CG3C52    -0.027000       12.0110           0
    3165 QQQ  198  NMP  H8   HGA2       0.090000        1.0080           0
    3166 QQQ  198  NMP  H9   HGA2       0.090000        1.0080           0
    3167 QQQ  198  NMP  C6   CG2R53     0.286000       12.0110           0
    3168 QQQ  198  NMP  O7   OG2D1     -0.500000       15.9990           0
    3169 QQQ  199  NMP  C1   CG331     -0.161000       12.0110           0
    3170 QQQ  199  NMP  H1   HGA3       0.090000        1.0080           0
    3171 QQQ  199  NMP  H2   HGA3       0.090000        1.0080           0
    3172 QQQ  199  NMP  H3   HGA3       0.090000        1.0080           0
    3173 QQQ  199  NMP  N2   NG2R53    -0.098000       14.0070           0
    3174 QQQ  199  NMP  C3   CG3C52    -0.077000       12.0110           0
    3175 QQQ  199  NMP  H4   HGA2       0.090000        1.0080           0
    3176 QQQ  199  NMP  H5   HGA2       0.090000        1.0080           0
    3177 QQQ  199  NMP  C4   CG3C52    -0.233000       12.0110           0
    3178 QQQ  199  NMP  H6   HGA2       0.090000        1.0080           0
    3179 QQQ  199  NMP  H7   HGA2       0.090000        1.0080           0
    3180 QQQ  199  NMP  C5   CG3C52    -0.027000       12.0110           0
    3181 QQQ  199  NMP  H8   HGA2       0.090000        1.0080           0
    3182 QQQ  199  NMP  H9   HGA2       0.090000        1.0080           0
    3183 QQQ  199  NMP  C6   CG2R53     0.286000       12.0110           0
    3184 QQQ  199  NMP  O7   OG2D1     -0.500000       15.9990           0
    3185 QQQ  200  NMP  C1   CG331     -0.161000       12.0110           0
    3186 QQQ  200  NMP  H1   HGA3       0.090000        1.0080           0
    3187 QQQ  200  NMP  H2   HGA3       0.090000        1.0080           0
    3188 QQQ  200  NMP  H3   HGA3       0.090000        1.0080           0
    3189 QQQ  200  NMP  N2   NG2R53    -0.098000       14.0070           0
    3190 QQQ  200  NMP  C3   CG3C52    -0.077000       12.0110           0
    3191 QQQ  200  NMP  H4   HGA2       0.090000        1.0080           0
    3192 QQQ  200  NMP  H5   HGA2       0.090000        1.0080           0
    3193 QQQ  200  NMP  C4   CG3C52    -0.233000       12.0110           0
    3194 QQQ  200  NMP  H6   HGA2       0.090000        1.0080           0
    3195 QQQ  200  NMP  H7   HGA2       0.090000        1.0080           0
    3196 QQQ  200  NMP  C5   CG3C52    -0.027000       12.0110           0
    3197 QQQ  200  NMP  H8   HGA2       0.090000        1.0080           0
    3198 QQQ  200  NMP  H9   HGA2       0.090000        1.0080           0
    3199 QQQ  200  NMP  C6   CG2R53     0.286000       12.0110           0
    3200 QQQ  200  NMP  O7   OG2D1     -0.500000       15.9990           0
    3201 QQQ  201  NMP  C1   CG331     -0.161000       12.0110           0
    3202 QQQ  201  NMP  H1   HGA3       0.090000        1.0080           0
    3203 QQQ  201  NMP  H2   HGA3       0.090000        1.0080           0
    3204 QQQ  201  NMP  H3   HGA3       0.090000        1.0080           0
    3205 QQQ  201  NMP  N2   NG2R53    -0.098000       14.0070           0
    3206 QQQ  201  NMP  C3   CG3C52    -0.077000       12.0110           0
    3207 QQQ  201  NMP  H4   HGA2       0.090000        1.0080           0
    3208 QQQ  201  NMP  H5   HGA2       0.090000        1.0080           0
    3209 QQQ  201  NMP  C4   CG3C52    -0.233000       12.0110           0
    3210 QQQ  201  NMP  H6   HGA2       0.090000        1.0080           0
    3211 QQQ  201  NMP  H7   HGA2       0.090000        1.0080           0
    3212 QQQ  201  NMP  C5   CG3C52    -0.027000       12.0110           0
    3213 QQQ  201  NMP  H8   HGA2       0.090000        1.0080           0
    3214 QQQ  201  NMP  H9   HGA2       0.090000        1.0080           0
    3215 QQQ  201  NMP  C6   CG2R53     0.286000       12.0110           0
    3216 QQQ  201  NMP  O7   OG2D1     -0.500000       15.9990           0
    3217 QQQ  202  NMP  C1   CG331     -0.161000       12.0110           0
    3218 QQQ  202  NMP  H1   HGA3       0.090000        1.0080           0
    3219 QQQ  202  NMP  H2   HGA3       0.090000        1.0080           0
    3220 QQQ  202  NMP  H3   HGA3       0.090000        1.0080           0
    3221 QQQ  202  NMP  N2   NG2R53    -0.098000       14.0070           0
    3222 QQQ  202  NMP  C3   CG3C52    -0.077000       12.0110           0
    3223 QQQ  202  NMP  H4   HGA2       0.090000        1.0080           0
    3224 QQQ  202  NMP  H5   HGA2       0.090000        1.0080           0
    3225 QQQ  202  NMP  C4   CG3C52    -0.233000       12.0110           0
    3226 QQQ  202  NMP  H6   HGA2       0.090000        1.0080           0
    3227 QQQ  202  NMP  H7   HGA2       0.090000        1.0080           0
    3228 QQQ  202  NMP  C5   CG3C52    -0.027000       12.0110           0
    3229 QQQ  202  NMP  H8   HGA2       0.090000        1.0080           0
    3230 QQQ  202  NMP  H9   HGA2       0.090000        1.0080           0
    3231 QQQ  202  NMP  C6   CG2R53     0.286000       12.0110           0
    3232 QQQ  202  NMP  O7   OG2D1     -0.500000       15.9990           0
    3233 QQQ  203  NMP  C1   CG331     -0.161000       12.0110           0
    3234 QQQ  203  NMP  H1   HGA3       0.090000        1.0080           0
    3235 QQQ  203  NMP  H2   HGA3       0.090000        1.0080           0
    3236 QQQ  203  NMP  H3   HGA3       0.090000        1.0080           0
    3237 QQQ  203  NMP  N2   NG2R53    -0.098000       14.0070           0
    3238 QQQ  203  NMP  C3   CG3C52    -0.077000       12.0110           0
    3239 QQQ  203  NMP  H4   HGA2       0.090000        1.0080           0
    3240 QQQ  203  NMP  H5   HGA2       0.090000        1.0080           0
    3241 QQQ  203  NMP  C4   CG3C52    -0.233000       12.0110           0
    3242 QQQ  203  NMP  H6   HGA2       0.090000        1.0080           0
    3243 QQQ  203  NMP  H7   HGA2       0.090000        1.0080           0
    3244 QQQ  203  NMP  C5   CG3C52    -0.027000       12.0110           0
    3245 QQQ  203  NMP  H8   HGA2       0.090000        1.0080           0
    3246 QQQ  203  NMP  H9   HGA2       0.090000        1.0080           0
    3247 QQQ  203  NMP  C6   CG2R53     0.286000       12.0110           0
    3248 QQQ  203  NMP  O7   OG2D1     -0.500000       15.9990           0
    3249 QQQ  204  NMP  C1   CG331     -0.161000       12.0110           0
    3250 QQQ  204  NMP  H1   HGA3       0.090000        1.0080           0
    3251 QQQ  204  NMP  H2   HGA3       0.090000        1.0080           0
    3252 QQQ  204  NMP  H3   HGA3       0.090000        1.0080           0
    3253 QQQ  204  NMP  N2   NG2R53    -0.098000       14.0070           0
    3254 QQQ  204  NMP  C3   CG3C52    -0.077000       12.0110           0
    3255 QQQ  204  NMP  H4   HGA2       0.090000        1.0080           0
    3256 QQQ  204  NMP  H5   HGA2       0.090000        1.0080           0
    3257 QQQ  204  NMP  C4   CG3C52    -0.233000       12.0110           0
    3258 QQQ  204  NMP  H6   HGA2       0.090000        1.0080           0
    3259 QQQ  204  NMP  H7   HGA2       0.090000        1.0080           0
    3260 QQQ  204  NMP  C5   CG3C52    -0.027000       12.0110           0
    3261 QQQ  204  NMP  H8   HGA2       0.090000        1.0080           0
    3262 QQQ  204  NMP  H9   HGA2       0.090000        1.0080           0
    3263 QQQ  204  NMP  C6   CG2R53     0.286000       12.0110           0
    3264 QQQ  204  NMP  O7   OG2D1     -0.500000       15.9990           0
    3265 QQQ  205  NMP  C1   CG331     -0.161000       12.0110           0
    3266 QQQ  205  NMP  H1   HGA3       0.090000        1.0080           0
    3267 QQQ  205  NMP  H2   HGA3       0.090000        1.0080           0
    3268 QQQ  205  NMP  H3   HGA3       0.090000        1.0080           0
    3269 QQQ  205  NMP  N2   NG2R53    -0.098000       14.0070           0
    3270 QQQ  205  NMP  C3   CG3C52    -0.077000       12.0110           0
    3271 QQQ  205  NMP  H4   HGA2       0.090000        1.0080           0
    3272 QQQ  205  NMP  H5   HGA2       0.090000        1.0080           0
    3273 QQQ  205  NMP  C4   CG3C52    -0.233000       12.0110           0
    3274 QQQ  205  NMP  H6   HGA2       0.090000        1.0080           0
    3275 QQQ  205  NMP  H7   HGA2       0.090000        1.0080           0
    3276 QQQ  205  NMP  C5   CG3C52    -0.027000       12.0110           0
    3277 QQQ  205  NMP  H8   HGA2       0.090000        1.0080           0
    3278 QQQ  205  NMP  H9   HGA2       0.090000        1.0080           0
    3279 QQQ  205  NMP  C6   CG2R53     0.286000       12.0110           0
    3280 QQQ  205  NMP  O7   OG2D1     -0.500000       15.9990           0
    3281 QQQ  206  NMP  C1   CG331     -0.161000       12.0110           0
    3282 QQQ  206  NMP  H1   HGA3       0.090000        1.0080           0
    3283 QQQ  206  NMP  H2   HGA3       0.090000        1.0080           0
    3284 QQQ  206  NMP  H3   HGA3       0.090000        1.0080           0
    3285 QQQ  206  NMP  N2   NG2R53    -0.098000       14.0070           0
    3286 QQQ  206  NMP  C3   CG3C52    -0.077000       12.0110           0
    3287 QQQ  206  NMP  H4   HGA2       0.090000        1.0080           0
    3288 QQQ  206  NMP  H5   HGA2       0.090000        1.0080           0
    3289 QQQ  206  NMP  C4   CG3C52    -0.233000       12.0110           0
    3290 QQQ  206  NMP  H6   HGA2       0.090000        1.0080           0
    3291 QQQ  206  NMP  H7   HGA2       0.090000        1.0080           0
    3292 QQQ  206  NMP  C5   CG3C52    -0.027000       12.0110           0
    3293 QQQ  206  NMP  H8   HGA2       0.090000        1.0080           0
    3294 QQQ  206  NMP  H9   HGA2       0.090000        1.0080           0
    3295 QQQ  206  NMP  C6   CG2R53     0.286000       12.0110           0
    3296 QQQ  206  NMP  O7   OG2D1     -0.500000       15.9990           0
    3297 QQQ  207  NMP  C1   CG331     -0.161000       12.0110           0
    3298 QQQ  207  NMP  H1   HGA3       0.090000        1.0080           0
    3299 QQQ  207  NMP  H2   HGA3       0.090000        1.0080           0
    3300 QQQ  207  NMP  H3   HGA3       0.090000        1.0080           0
    3301 QQQ  207  NMP  N2   NG2R53    -0.098000       14.0070           0
    3302 QQQ  207  NMP  C3   CG3C52    -0.077000       12.0110           0
    3303 QQQ  207  NMP  H4   HGA2       0.090000        1.0080           0
    3304 QQQ  207  NMP  H5   HGA2       0.090000        1.0080           0
    3305 QQQ  207  NMP  C4   CG3C52    -0.233000       12.0110           0
    3306 QQQ  207  NMP  H6   HGA2       0.090000        1.0080           0
    3307 QQQ  207  NMP  H7   HGA2       0.090000        1.0080           0
    3308 QQQ  207  NMP  C5   CG3C52    -0.027000       12.0110           0
    3309 QQQ  207  NMP  H8   HGA2       0.090000        1.0080           0
    3310 QQQ  207  NMP  H9   HGA2       0.090000        1.0080           0
    3311 QQQ  207  NMP  C6   CG2R53     0.286000       12.0110           0
    3312 QQQ  207  NMP  O7   OG2D1     -0.500000       15.9990           0
    3313 QQQ  208  NMP  C1   CG331     -0.161000       12.0110           0
    3314 QQQ  208  NMP  H1   HGA3       0.090000        1.0080           0
    3315 QQQ  208  NMP  H2   HGA3       0.090000        1.0080           0
    3316 QQQ  208  NMP  H3   HGA3       0.090000        1.0080           0
    3317 QQQ  208  NMP  N2   NG2R53    -0.098000       14.0070           0
    3318 QQQ  208  NMP  C3   CG3C52    -0.077000       12.0110           0
    3319 QQQ  208  NMP  H4   HGA2       0.090000        1.0080           0
    3320 QQQ  208  NMP  H5   HGA2       0.090000        1.0080           0
    3321 QQQ  208  NMP  C4   CG3C52    -0.233000       12.0110           0
    3322 QQQ  208  NMP  H6   HGA2       0.090000        1.0080           0
    3323 QQQ  208  NMP  H7   HGA2       0.090000        1.0080           0
    3324 QQQ  208  NMP  C5   CG3C52    -0.027000       12.0110           0
    3325 QQQ  208  NMP  H8   HGA2       0.090000        1.0080           0
    3326 QQQ  208  NMP  H9   HGA2       0.090000        1.0080           0
    3327 QQQ  208  NMP  C6   CG2R53     0.286000       12.0110           0
    3328 QQQ  208  NMP  O7   OG2D1     -0.500000       15.9990           0
    3329 QQQ  209  NMP  C1   CG331     -0.161000       12.0110           0
    3330 QQQ  209  NMP  H1   HGA3       0.090000        1.0080           0
    3331 QQQ  209  NMP  H2   HGA3       0.090000        1.0080           0
    3332 QQQ  209  NMP  H3   HGA3       0.090000        1.0080           0
    3333 QQQ  209  NMP  N2   NG2R53    -0.098000       14.0070           0
    3334 QQQ  209  NMP  C3   CG3C52    -0.077000       12.0110           0
    3335 QQQ  209  NMP  H4   HGA2       0.090000        1.0080           0
    3336 QQQ  209  NMP  H5   HGA2       0.090000        1.0080           0
    3337 QQQ  209  NMP  C4   CG3C52    -0.233000       12.0110           0
    3338 QQQ  209  NMP  H6   HGA2       0.090000        1.0080           0
    3339 QQQ  209  NMP  H7   HGA2       0.090000        1.0080           0
    3340 QQQ  209  NMP  C5   CG3C52    -0.027000       12.0110           0
    3341 QQQ  209  NMP  H8   HGA2       0.090000        1.0080           0
    3342 QQQ  209  NMP  H9   HGA2       0.090000        1.0080           0
    3343 QQQ  209  NMP  C6   CG2R53     0.286000       12.0110           0
    3344 QQQ  209  NMP  O7   OG2D1     -0.500000       15.9990           0
    3345 QQQ  210  NMP  C1   CG331     -0.161000       12.0110           0
    3346 QQQ  210  NMP  H1   HGA3       0.090000        1.0080           0
    3347 QQQ  210  NMP  H2   HGA3       0.090000        1.0080           0
    3348 QQQ  210  NMP  H3   HGA3       0.090000        1.0080           0
    3349 QQQ  210  NMP  N2   NG2R53    -0.098000       14.0070           0
    3350 QQQ  210  NMP  C3   CG3C52    -0.077000       12.0110           0
    3351 QQQ  210  NMP  H4   HGA2       0.090000        1.0080           0
    3352 QQQ  210  NMP  H5   HGA2       0.090000        1.0080           0
    3353 QQQ  210  NMP  C4   CG3C52    -0.233000       12.0110           0
    3354 QQQ  210  NMP  H6   HGA2       0.090000        1.0080           0
    3355 QQQ  210  NMP  H7   HGA2       0.090000        1.0080           0
    3356 QQQ  210  NMP  C5   CG3C52    -0.027000       12.0110           0
    3357 QQQ  210  NMP  H8   HGA2       0.090000        1.0080           0
    3358 QQQ  210  NMP  H9   HGA2       0.090000        1.0080           0
    3359 QQQ  210  NMP  C6   CG2R53     0.286000       12.0110           0
    3360 QQQ  210  NMP  O7   OG2D1     -0.500000       15.9990           0
    3361 QQQ  211  NMP  C1   CG331     -0.161000       12.0110           0
    3362 QQQ  211  NMP  H1   HGA3       0.090000        1.0080           0
    3363 QQQ  211  NMP  H2   HGA3       0.090000        1.0080           0
    3364 QQQ  211  NMP  H3   HGA3       0.090000        1.0080           0
    3365 QQQ  211  NMP  N2   NG2R53    -0.098000       14.0070           0
    3366 QQQ  211  NMP  C3   CG3C52    -0.077000       12.0110           0
    3367 QQQ  211  NMP  H4   HGA2       0.090000        1.0080           0
    3368 QQQ  211  NMP  H5   HGA2       0.090000        1.0080           0
    3369 QQQ  211  NMP  C4   CG3C52    -0.233000       12.0110           0
    3370 QQQ  211  NMP  H6   HGA2       0.090000        1.0080           0
    3371 QQQ  211  NMP  H7   HGA2       0.090000        1.0080           0
    3372 QQQ  211  NMP  C5   CG3C52    -0.027000       12.0110           0
    3373 QQQ  211  NMP  H8   HGA2       0.090000        1.0080           0
    3374 QQQ  211  NMP  H9   HGA2       0.090000        1.0080           0
    3375 QQQ  211  NMP  C6   CG2R53     0.286000       12.0110           0
    3376 QQQ  211  NMP  O7   OG2D1     -0.500000       15.9990           0
    3377 QQQ  212  NMP  C1   CG331     -0.161000       12.0110           0
    3378 QQQ  212  NMP  H1   HGA3       0.090000        1.0080           0
    3379 QQQ  212  NMP  H2   HGA3       0.090000        1.0080           0
    3380 QQQ  212  NMP  H3   HGA3       0.090000        1.0080           0
    3381 QQQ  212  NMP  N2   NG2R53    -0.098000       14.0070           0
    3382 QQQ  212  NMP  C3   CG3C52    -0.077000       12.0110           0
    3383 QQQ  212  NMP  H4   HGA2       0.090000        1.0080           0
    3384 QQQ  212  NMP  H5   HGA2       0.090000        1.0080           0
    3385 QQQ  212  NMP  C4   CG3C52    -0.233000       12.0110           0
    3386 QQQ  212  NMP  H6   HGA2       0.090000        1.0080           0
    3387 QQQ  212  NMP  H7   HGA2       0.090000        1.0080           0
    3388 QQQ  212  NMP  C5   CG3C52    -0.027000       12.0110           0
    3389 QQQ  212  NMP  H8   HGA2       0.090000        1.0080           0
    3390 QQQ  212  NMP  H9   HGA2       0.090000        1.0080           0
    3391 QQQ  212  NMP  C6   CG2R53     0.286000       12.0110           0
    3392 QQQ  212  NMP  O7   OG2D1     -0.500000       15.9990           0
    3393 QQQ  213  NMP  C1   CG331     -0.161000       12.0110           0
    3394 QQQ  213  NMP  H1   HGA3       0.090000        1.0080           0
    3395 QQQ  213  NMP  H2   HGA3       0.090000        1.0080           0
    3396 QQQ  213  NMP  H3   HGA3       0.090000        1.0080           0
    3397 QQQ  213  NMP  N2   NG2R53    -0.098000       14.0070           0
    3398 QQQ  213  NMP  C3   CG3C52    -0.077000       12.0110           0
    3399 QQQ  213  NMP  H4   HGA2       0.090000        1.0080           0
    3400 QQQ  213  NMP  H5   HGA2       0.090000        1.0080           0
    3401 QQQ  213  NMP  C4   CG3C52    -0.233000       12.0110           0
    3402 QQQ  213  NMP  H6   HGA2       0.090000        1.0080           0
    3403 QQQ  213  NMP  H7   HGA2       0.090000        1.0080           0
    3404 QQQ  213  NMP  C5   CG3C52    -0.027000       12.0110           0
    3405 QQQ  213  NMP  H8   HGA2       0.090000        1.0080           0
    3406 QQQ  213  NMP  H9   HGA2       0.090000        1.0080           0
    3407 QQQ  213  NMP  C6   CG2R53     0.286000       12.0110           0
    3408 QQQ  213  NMP  O7   OG2D1     -0.500000       15.9990           0
    3409 QQQ  214  NMP  C1   CG331     -0.161000       12.0110           0
    3410 QQQ  214  NMP  H1   HGA3       0.090000        1.0080           0
    3411 QQQ  214  NMP  H2   HGA3       0.090000        1.0080           0
    3412 QQQ  214  NMP  H3   HGA3       0.090000        1.0080           0
    3413 QQQ  214  NMP  N2   NG2R53    -0.098000       14.0070           0
    3414 QQQ  214  NMP  C3   CG3C52    -0.077000       12.0110           0
    3415 QQQ  214  NMP  H4   HGA2       0.090000        1.0080           0
    3416 QQQ  214  NMP  H5   HGA2       0.090000        1.0080           0
    3417 QQQ  214  NMP  C4   CG3C52    -0.233000       12.0110           0
    3418 QQQ  214  NMP  H6   HGA2       0.090000        1.0080           0
    3419 QQQ  214  NMP  H7   HGA2       0.090000        1.0080           0
    3420 QQQ  214  NMP  C5   CG3C52    -0.027000       12.0110           0
    3421 QQQ  214  NMP  H8   HGA2       0.090000        1.0080           0
    3422 QQQ  214  NMP  H9   HGA2       0.090000        1.0080           0
    3423 QQQ  214  NMP  C6   CG2R53     0.286000       12.0110           0
    3424 QQQ  214  NMP  O7   OG2D1     -0.500000       15.9990           0
    3425 QQQ  215  NMP  C1   CG331     -0.161000       12.0110           0
    3426 QQQ  215  NMP  H1   HGA3       0.090000        1.0080           0
    3427 QQQ  215  NMP  H2   HGA3       0.090000        1.0080           0
    3428 QQQ  215  NMP  H3   HGA3       0.090000        1.0080           0
    3429 QQQ  215  NMP  N2   NG2R53    -0.098000       14.0070           0
    3430 QQQ  215  NMP  C3   CG3C52    -0.077000       12.0110           0
    3431 QQQ  215  NMP  H4   HGA2       0.090000        1.0080           0
    3432 QQQ  215  NMP  H5   HGA2       0.090000        1.0080           0
    3433 QQQ  215  NMP  C4   CG3C52    -0.233000       12.0110           0
    3434 QQQ  215  NMP  H6   HGA2       0.090000        1.0080           0
    3435 QQQ  215  NMP  H7   HGA2       0.090000        1.0080           0
    3436 QQQ  215  NMP  C5   CG3C52    -0.027000       12.0110           0
    3437 QQQ  215  NMP  H8   HGA2       0.090000        1.0080           0
    3438 QQQ  215  NMP  H9   HGA2       0.090000        1.0080           0
    3439 QQQ  215  NMP  C6   CG2R53     0.286000       12.0110           0
    3440 QQQ  215  NMP  O7   OG2D1     -0.500000       15.9990           0
    3441 QQQ  216  NMP  C1   CG331     -0.161000       12.0110           0
    3442 QQQ  216  NMP  H1   HGA3       0.090000        1.0080           0
    3443 QQQ  216  NMP  H2   HGA3       0.090000        1.0080           0
    3444 QQQ  216  NMP  H3   HGA3       0.090000        1.0080           0
    3445 QQQ  216  NMP  N2   NG2R53    -0.098000       14.0070           0
    3446 QQQ  216  NMP  C3   CG3C52    -0.077000       12.0110           0
    3447 QQQ  216  NMP  H4   HGA2       0.090000        1.0080           0
    3448 QQQ  216  NMP  H5   HGA2       0.090000        1.0080           0
    3449 QQQ  216  NMP  C4   CG3C52    -0.233000       12.0110           0
    3450 QQQ  216  NMP  H6   HGA2       0.090000        1.0080           0
    3451 QQQ  216  NMP  H7   HGA2       0.090000        1.0080           0
    3452 QQQ  216  NMP  C5   CG3C52    -0.027000       12.0110           0
    3453 QQQ  216  NMP  H8   HGA2       0.090000        1.0080           0
    3454 QQQ  216  NMP  H9   HGA2       0.090000        1.0080           0
    3455 QQQ  216  NMP  C6   CG2R53     0.286000       12.0110           0
    3456 QQQ  216  NMP  O7   OG2D1     -0.500000       15.9990           0
    3457 QQQ  217  NMP  C1   CG331     -0.161000       12.0110           0
    3458 QQQ  217  NMP  H1   HGA3       0.090000        1.0080           0
    3459 QQQ  217  NMP  H2   HGA3       0.090000        1.0080           0
    3460 QQQ  217  NMP  H3   HGA3       0.090000        1.0080           0
    3461 QQQ  217  NMP  N2   NG2R53    -0.098000       14.0070           0
    3462 QQQ  217  NMP  C3   CG3C52    -0.077000       12.0110           0
    3463 QQQ  217  NMP  H4   HGA2       0.090000        1.0080           0
    3464 QQQ  217  NMP  H5   HGA2       0.090000        1.0080           0
    3465 QQQ  217  NMP  C4   CG3C52    -0.233000       12.0110           0
    3466 QQQ  217  NMP  H6   HGA2       0.090000        1.0080           0
    3467 QQQ  217  NMP  H7   HGA2       0.090000        1.0080           0
    3468 QQQ  217  NMP  C5   CG3C52    -0.027000       12.0110           0
    3469 QQQ  217  NMP  H8   HGA2       0.090000        1.0080           0
    3470 QQQ  217  NMP  H9   HGA2       0.090000        1.0080           0
    3471 QQQ  217  NMP  C6   CG2R53     0.286000       12.0110           0
    3472 QQQ  217  NMP  O7   OG2D1     -0.500000       15.9990           0
    3473 QQQ  218  NMP  C1   CG331     -0.161000       12.0110           0
    3474 QQQ  218  NMP  H1   HGA3       0.090000        1.0080           0
    3475 QQQ  218  NMP  H2   HGA3       0.090000        1.0080           0
    3476 QQQ  218  NMP  H3   HGA3       0.090000        1.0080           0
    3477 QQQ  218  NMP  N2   NG2R53    -0.098000       14.0070           0
    3478 QQQ  218  NMP  C3   CG3C52    -0.077000       12.0110           0
    3479 QQQ  218  NMP  H4   HGA2       0.090000        1.0080           0
    3480 QQQ  218  NMP  H5   HGA2       0.090000        1.0080           0
    3481 QQQ  218  NMP  C4   CG3C52    -0.233000       12.0110           0
    3482 QQQ  218  NMP  H6   HGA2       0.090000        1.0080           0
    3483 QQQ  218  NMP  H7   HGA2       0.090000        1.0080           0
    3484 QQQ  218  NMP  C5   CG3C52    -0.027000       12.0110           0
    3485 QQQ  218  NMP  H8   HGA2       0.090000        1.0080           0
    3486 QQQ  218  NMP  H9   HGA2       0.090000        1.0080           0
    3487 QQQ  218  NMP  C6   CG2R53     0.286000       12.0110           0
    3488 QQQ  218  NMP  O7   OG2D1     -0.500000       15.9990           0
    3489 QQQ  219  NMP  C1   CG331     -0.161000       12.0110           0
    3490 QQQ  219  NMP  H1   HGA3       0.090000        1.0080           0
    3491 QQQ  219  NMP  H2   HGA3       0.090000        1.0080           0
    3492 QQQ  219  NMP  H3   HGA3       0.090000        1.0080           0
    3493 QQQ  219  NMP  N2   NG2R53    -0.098000       14.0070           0
    3494 QQQ  219  NMP  C3   CG3C52    -0.077000       12.0110           0
    3495 QQQ  219  NMP  H4   HGA2       0.090000        1.0080           0
    3496 QQQ  219  NMP  H5   HGA2       0.090000        1.0080           0
    3497 QQQ  219  NMP  C4   CG3C52    -0.233000       12.0110           0
    3498 QQQ  219  NMP  H6   HGA2       0.090000        1.0080           0
    3499 QQQ  219  NMP  H7   HGA2       0.090000        1.0080           0
    3500 QQQ  219  NMP  C5   CG3C52    -0.027000       12.0110           0
    3501 QQQ  219  NMP  H8   HGA2       0.090000        1.0080           0
    3502 QQQ  219  NMP  H9   HGA2       0.090000        1.0080           0
    3503 QQQ  219  NMP  C6   CG2R53     0.286000       12.0110           0
    3504 QQQ  219  NMP  O7   OG2D1     -0.500000       15.9990           0
    3505 QQQ  220  NMP  C1   CG331     -0.161000       12.0110           0
    3506 QQQ  220  NMP  H1   HGA3       0.090000        1.0080           0
    3507 QQQ  220  NMP  H2   HGA3       0.090000        1.0080           0
    3508 QQQ  220  NMP  H3   HGA3       0.090000        1.0080           0
    3509 QQQ  220  NMP  N2   NG2R53    -0.098000       14.0070           0
    3510 QQQ  220  NMP  C3   CG3C52    -0.077000       12.0110           0
    3511 QQQ  220  NMP  H4   HGA2       0.090000        1.0080           0
    3512 QQQ  220  NMP  H5   HGA2       0.090000        1.0080           0
    3513 QQQ  220  NMP  C4   CG3C52    -0.233000       12.0110           0
    3514 QQQ  220  NMP  H6   HGA2       0.090000        1.0080           0
    3515 QQQ  220  NMP  H7   HGA2       0.090000        1.0080           0
    3516 QQQ  220  NMP  C5   CG3C52    -0.027000       12.0110           0
    3517 QQQ  220  NMP  H8   HGA2       0.090000        1.0080           0
    3518 QQQ  220  NMP  H9   HGA2       0.090000        1.0080           0
    3519 QQQ  220  NMP  C6   CG2R53     0.286000       12.0110           0
    3520 QQQ  220  NMP  O7   OG2D1     -0.500000       15.9990           0
    3521 QQQ  221  NMP  C1   CG331     -0.161000       12.0110           0
    3522 QQQ  221  NMP  H1   HGA3       0.090000        1.0080           0
    3523 QQQ  221  NMP  H2   HGA3       0.090000        1.0080           0
    3524 QQQ  221  NMP  H3   HGA3       0.090000        1.0080           0
    3525 QQQ  221  NMP  N2   NG2R53    -0.098000       14.0070           0
    3526 QQQ  221  NMP  C3   CG3C52    -0.077000       12.0110           0
    3527 QQQ  221  NMP  H4   HGA2       0.090000        1.0080           0
    3528 QQQ  221  NMP  H5   HGA2       0.090000        1.0080           0
    3529 QQQ  221  NMP  C4   CG3C52    -0.233000       12.0110           0
    3530 QQQ  221  NMP  H6   HGA2       0.090000        1.0080           0
    3531 QQQ  221  NMP  H7   HGA2       0.090000        1.0080           0
    3532 QQQ  221  NMP  C5   CG3C52    -0.027000       12.0110           0
    3533 QQQ  221  NMP  H8   HGA2       0.090000        1.0080           0
    3534 QQQ  221  NMP  H9   HGA2       0.090000        1.0080           0
    3535 QQQ  221  NMP  C6   CG2R53     0.286000       12.0110           0
    3536 QQQ  221  NMP  O7   OG2D1     -0.500000       15.9990           0
    3537 QQQ  222  NMP  C1   CG331     -0.161000       12.0110           0
    3538 QQQ  222  NMP  H1   HGA3       0.090000        1.0080           0
    3539 QQQ  222  NMP  H2   HGA3       0.090000        1.0080           0
    3540 QQQ  222  NMP  H3   HGA3       0.090000        1.0080           0
    3541 QQQ  222  NMP  N2   NG2R53    -0.098000       14.0070           0
    3542 QQQ  222  NMP  C3   CG3C52    -0.077000       12.0110           0
    3543 QQQ  222  NMP  H4   HGA2       0.090000        1.0080           0
    3544 QQQ  222  NMP  H5   HGA2       0.090000        1.0080           0
    3545 QQQ  222  NMP  C4   CG3C52    -0.233000       12.0110           0
    3546 QQQ  222  NMP  H6   HGA2       0.090000        1.0080           0
    3547 QQQ  222  NMP  H7   HGA2       0.090000        1.0080           0
    3548 QQQ  222  NMP  C5   CG3C52    -0.027000       12.0110           0
    3549 QQQ  222  NMP  H8   HGA2       0.090000        1.0080           0
    3550 QQQ  222  NMP  H9   HGA2       0.090000        1.0080           0
    3551 QQQ  222  NMP  C6   CG2R53     0.286000       12.0110           0
    3552 QQQ  222  NMP  O7   OG2D1     -0.500000       15.9990           0
    3553 QQQ  223  NMP  C1   CG331     -0.161000       12.0110           0
    3554 QQQ  223  NMP  H1   HGA3       0.090000        1.0080           0
    3555 QQQ  223  NMP  H2   HGA3       0.090000        1.0080           0
    3556 QQQ  223  NMP  H3   HGA3       0.090000        1.0080           0
    3557 QQQ  223  NMP  N2   NG2R53    -0.098000       14.0070           0
    3558 QQQ  223  NMP  C3   CG3C52    -0.077000       12.0110           0
    3559 QQQ  223  NMP  H4   HGA2       0.090000        1.0080           0
    3560 QQQ  223  NMP  H5   HGA2       0.090000        1.0080           0
    3561 QQQ  223  NMP  C4   CG3C52    -0.233000       12.0110           0
    3562 QQQ  223  NMP  H6   HGA2       0.090000        1.0080           0
    3563 QQQ  223  NMP  H7   HGA2       0.090000        1.0080           0
    3564 QQQ  223  NMP  C5   CG3C52    -0.027000       12.0110           0
    3565 QQQ  223  NMP  H8   HGA2       0.090000        1.0080           0
    3566 QQQ  223  NMP  H9   HGA2       0.090000        1.0080           0
    3567 QQQ  223  NMP  C6   CG2R53     0.286000       12.0110           0
    3568 QQQ  223  NMP  O7   OG2D1     -0.500000       15.9990           0
    3569 QQQ  224  NMP  C1   CG331     -0.161000       12.0110           0
    3570 QQQ  224  NMP  H1   HGA3       0.090000        1.0080           0
    3571 QQQ  224  NMP  H2   HGA3       0.090000        1.0080           0
    3572 QQQ  224  NMP  H3   HGA3       0.090000        1.0080           0
    3573 QQQ  224  NMP  N2   NG2R53    -0.098000       14.0070           0
    3574 QQQ  224  NMP  C3   CG3C52    -0.077000       12.0110           0
    3575 QQQ  224  NMP  H4   HGA2       0.090000        1.0080           0
    3576 QQQ  224  NMP  H5   HGA2       0.090000        1.0080           0
    3577 QQQ  224  NMP  C4   CG3C52    -0.233000       12.0110           0
    3578 QQQ  224  NMP  H6   HGA2       0.090000        1.0080           0
    3579 QQQ  224  NMP  H7   HGA2       0.090000        1.0080           0
    3580 QQQ  224  NMP  C5   CG3C52    -0.027000       12.0110           0
    3581 QQQ  224  NMP  H8   HGA2       0.090000        1.0080           0
    3582 QQQ  224  NMP  H9   HGA2       0.090000        1.0080           0
    3583 QQQ  224  NMP  C6   CG2R53     0.286000       12.0110           0
    3584 QQQ  224  NMP  O7   OG2D1     -0.500000       15.9990           0
    3585 QQQ  225  NMP  C1   CG331     -0.161000       12.0110           0
    3586 QQQ  225  NMP  H1   HGA3       0.090000        1.0080           0
    3587 QQQ  225  NMP  H2   HGA3       0.090000        1.0080           0
    3588 QQQ  225  NMP  H3   HGA3       0.090000        1.0080           0
    3589 QQQ  225  NMP  N2   NG2R53    -0.098000       14.0070           0
    3590 QQQ  225  NMP  C3   CG3C52    -0.077000       12.0110           0
    3591 QQQ  225  NMP  H4   HGA2       0.090000        1.0080           0
    3592 QQQ  225  NMP  H5   HGA2       0.090000        1.0080           0
    3593 QQQ  225  NMP  C4   CG3C52    -0.233000       12.0110           0
    3594 QQQ  225  NMP  H6   HGA2       0.090000        1.0080           0
    3595 QQQ  225  NMP  H7   HGA2       0.090000        1.0080           0
    3596 QQQ  225  NMP  C5   CG3C52    -0.027000       12.0110           0
    3597 QQQ  225  NMP  H8   HGA2       0.090000        1.0080           0
    3598 QQQ  225  NMP  H9   HGA2       0.090000        1.0080           0
    3599 QQQ  225  NMP  C6   CG2R53     0.286000       12.0110           0
    3600 QQQ  225  NMP  O7   OG2D1     -0.500000       15.9990           0
    3601 QQQ  226  NMP  C1   CG331     -0.161000       12.0110           0
    3602 QQQ  226  NMP  H1   HGA3       0.090000        1.0080           0
    3603 QQQ  226  NMP  H2   HGA3       0.090000        1.0080           0
    3604 QQQ  226  NMP  H3   HGA3       0.090000        1.0080           0
    3605 QQQ  226  NMP  N2   NG2R53    -0.098000       14.0070           0
    3606 QQQ  226  NMP  C3   CG3C52    -0.077000       12.0110           0
    3607 QQQ  226  NMP  H4   HGA2       0.090000        1.0080           0
    3608 QQQ  226  NMP  H5   HGA2       0.090000        1.0080           0
    3609 QQQ  226  NMP  C4   CG3C52    -0.233000       12.0110           0
    3610 QQQ  226  NMP  H6   HGA2       0.090000        1.0080           0
    3611 QQQ  226  NMP  H7   HGA2       0.090000        1.0080           0
    3612 QQQ  226  NMP  C5   CG3C52    -0.027000       12.0110           0
    3613 QQQ  226  NMP  H8   HGA2       0.090000        1.0080           0
    3614 QQQ  226  NMP  H9   HGA2       0.090000        1.0080           0
    3615 QQQ  226  NMP  C6   CG2R53     0.286000       12.0110           0
    3616 QQQ  226  NMP  O7   OG2D1     -0.500000       15.9990           0
    3617 QQQ  227  NMP  C1   CG331     -0.161000       12.0110           0
    3618 QQQ  227  NMP  H1   HGA3       0.090000        1.0080           0
    3619 QQQ  227  NMP  H2   HGA3       0.090000        1.0080           0
    3620 QQQ  227  NMP  H3   HGA3       0.090000        1.0080           0
    3621 QQQ  227  NMP  N2   NG2R53    -0.098000       14.0070           0
    3622 QQQ  227  NMP  C3   CG3C52    -0.077000       12.0110           0
    3623 QQQ  227  NMP  H4   HGA2       0.090000        1.0080           0
    3624 QQQ  227  NMP  H5   HGA2       0.090000        1.0080           0
    3625 QQQ  227  NMP  C4   CG3C52    -0.233000       12.0110           0
    3626 QQQ  227  NMP  H6   HGA2       0.090000        1.0080           0
    3627 QQQ  227  NMP  H7   HGA2       0.090000        1.0080           0
    3628 QQQ  227  NMP  C5   CG3C52    -0.027000       12.0110           0
    3629 QQQ  227  NMP  H8   HGA2       0.090000        1.0080           0
    3630 QQQ  227  NMP  H9   HGA2       0.090000        1.0080           0
    3631 QQQ  227  NMP  C6   CG2R53     0.286000       12.0110           0
    3632 QQQ  227  NMP  O7   OG2D1     -0.500000       15.9990           0
    3633 QQQ  228  NMP  C1   CG331     -0.161000       12.0110           0
    3634 QQQ  228  NMP  H1   HGA3       0.090000        1.0080           0
    3635 QQQ  228  NMP  H2   HGA3       0.090000        1.0080           0
    3636 QQQ  228  NMP  H3   HGA3       0.090000        1.0080           0
    3637 QQQ  228  NMP  N2   NG2R53    -0.098000       14.0070           0
    3638 QQQ  228  NMP  C3   CG3C52    -0.077000       12.0110           0
    3639 QQQ  228  NMP  H4   HGA2       0.090000        1.0080           0
    3640 QQQ  228  NMP  H5   HGA2       0.090000        1.0080           0
    3641 QQQ  228  NMP  C4   CG3C52    -0.233000       12.0110           0
    3642 QQQ  228  NMP  H6   HGA2       0.090000        1.0080           0
    3643 QQQ  228  NMP  H7   HGA2       0.090000        1.0080           0
    3644 QQQ  228  NMP  C5   CG3C52    -0.027000       12.0110           0
    3645 QQQ  228  NMP  H8   HGA2       0.090000        1.0080           0
    3646 QQQ  228  NMP  H9   HGA2       0.090000        1.0080           0
    3647 QQQ  228  NMP  C6   CG2R53     0.286000       12.0110           0
    3648 QQQ  228  NMP  O7   OG2D1     -0.500000       15.9990           0
    3649 QQQ  229  NMP  C1   CG331     -0.161000       12.0110           0
    3650 QQQ  229  NMP  H1   HGA3       0.090000        1.0080           0
    3651 QQQ  229  NMP  H2   HGA3       0.090000        1.0080           0
    3652 QQQ  229  NMP  H3   HGA3       0.090000        1.0080           0
    3653 QQQ  229  NMP  N2   NG2R53    -0.098000       14.0070           0
    3654 QQQ  229  NMP  C3   CG3C52    -0.077000       12.0110           0
    3655 QQQ  229  NMP  H4   HGA2       0.090000        1.0080           0
    3656 QQQ  229  NMP  H5   HGA2       0.090000        1.0080           0
    3657 QQQ  229  NMP  C4   CG3C52    -0.233000       12.0110           0
    3658 QQQ  229  NMP  H6   HGA2       0.090000        1.0080           0
    3659 QQQ  229  NMP  H7   HGA2       0.090000        1.0080           0
    3660 QQQ  229  NMP  C5   CG3C52    -0.027000       12.0110           0
    3661 QQQ  229  NMP  H8   HGA2       0.090000        1.0080           0
    3662 QQQ  229  NMP  H9   HGA2       0.090000        1.0080           0
    3663 QQQ  229  NMP  C6   CG2R53     0.286000       12.0110           0
    3664 QQQ  229  NMP  O7   OG2D1     -0.500000       15.9990           0
    3665 QQQ  230  NMP  C1   CG331     -0.161000       12.0110           0
    3666 QQQ  230  NMP  H1   HGA3       0.090000        1.0080           0
    3667 QQQ  230  NMP  H2   HGA3       0.090000        1.0080           0
    3668 QQQ  230  NMP  H3   HGA3       0.090000        1.0080           0
    3669 QQQ  230  NMP  N2   NG2R53    -0.098000       14.0070           0
    3670 QQQ  230  NMP  C3   CG3C52    -0.077000       12.0110           0
    3671 QQQ  230  NMP  H4   HGA2       0.090000        1.0080           0
    3672 QQQ  230  NMP  H5   HGA2       0.090000        1.0080           0
    3673 QQQ  230  NMP  C4   CG3C52    -0.233000       12.0110           0
    3674 QQQ  230  NMP  H6   HGA2       0.090000        1.0080           0
    3675 QQQ  230  NMP  H7   HGA2       0.090000        1.0080           0
    3676 QQQ  230  NMP  C5   CG3C52    -0.027000       12.0110           0
    3677 QQQ  230  NMP  H8   HGA2       0.090000        1.0080           0
    3678 QQQ  230  NMP  H9   HGA2       0.090000        1.0080           0
    3679 QQQ  230  NMP  C6   CG2R53     0.286000       12.0110           0
    3680 QQQ  230  NMP  O7   OG2D1     -0.500000       15.9990           0
    3681 QQQ  231  NMP  C1   CG331     -0.161000       12.0110           0
    3682 QQQ  231  NMP  H1   HGA3       0.090000        1.0080           0
    3683 QQQ  231  NMP  H2   HGA3       0.090000        1.0080           0
    3684 QQQ  231  NMP  H3   HGA3       0.090000        1.0080           0
    3685 QQQ  231  NMP  N2   NG2R53    -0.098000       14.0070           0
    3686 QQQ  231  NMP  C3   CG3C52    -0.077000       12.0110           0
    3687 QQQ  231  NMP  H4   HGA2       0.090000        1.0080           0
    3688 QQQ  231  NMP  H5   HGA2       0.090000        1.0080           0
    3689 QQQ  231  NMP  C4   CG3C52    -0.233000       12.0110           0
    3690 QQQ  231  NMP  H6   HGA2       0.090000        1.0080           0
    3691 QQQ  231  NMP  H7   HGA2       0.090000        1.0080           0
    3692 QQQ  231  NMP  C5   CG3C52    -0.027000       12.0110           0
    3693 QQQ  231  NMP  H8   HGA2       0.090000        1.0080           0
    3694 QQQ  231  NMP  H9   HGA2       0.090000        1.0080           0
    3695 QQQ  231  NMP  C6   CG2R53     0.286000       12.0110           0
    3696 QQQ  231  NMP  O7   OG2D1     -0.500000       15.9990           0
    3697 QQQ  232  NMP  C1   CG331     -0.161000       12.0110           0
    3698 QQQ  232  NMP  H1   HGA3       0.090000        1.0080           0
    3699 QQQ  232  NMP  H2   HGA3       0.090000        1.0080           0
    3700 QQQ  232  NMP  H3   HGA3       0.090000        1.0080           0
    3701 QQQ  232  NMP  N2   NG2R53    -0.098000       14.0070           0
    3702 QQQ  232  NMP  C3   CG3C52    -0.077000       12.0110           0
    3703 QQQ  232  NMP  H4   HGA2       0.090000        1.0080           0
    3704 QQQ  232  NMP  H5   HGA2       0.090000        1.0080           0
    3705 QQQ  232  NMP  C4   CG3C52    -0.233000       12.0110           0
    3706 QQQ  232  NMP  H6   HGA2       0.090000        1.0080           0
    3707 QQQ  232  NMP  H7   HGA2       0.090000        1.0080           0
    3708 QQQ  232  NMP  C5   CG3C52    -0.027000       12.0110           0
    3709 QQQ  232  NMP  H8   HGA2       0.090000        1.0080           0
    3710 QQQ  232  NMP  H9   HGA2       0.090000        1.0080           0
    3711 QQQ  232  NMP  C6   CG2R53     0.286000       12.0110           0
    3712 QQQ  232  NMP  O7   OG2D1     -0.500000       15.9990           0
    3713 QQQ  233  NMP  C1   CG331     -0.161000       12.0110           0
    3714 QQQ  233  NMP  H1   HGA3       0.090000        1.0080           0
    3715 QQQ  233  NMP  H2   HGA3       0.090000        1.0080           0
    3716 QQQ  233  NMP  H3   HGA3       0.090000        1.0080           0
    3717 QQQ  233  NMP  N2   NG2R53    -0.098000       14.0070           0
    3718 QQQ  233  NMP  C3   CG3C52    -0.077000       12.0110           0
    3719 QQQ  233  NMP  H4   HGA2       0.090000        1.0080           0
    3720 QQQ  233  NMP  H5   HGA2       0.090000        1.0080           0
    3721 QQQ  233  NMP  C4   CG3C52    -0.233000       12.0110           0
    3722 QQQ  233  NMP  H6   HGA2       0.090000        1.0080           0
    3723 QQQ  233  NMP  H7   HGA2       0.090000        1.0080           0
    3724 QQQ  233  NMP  C5   CG3C52    -0.027000       12.0110           0
    3725 QQQ  233  NMP  H8   HGA2       0.090000        1.0080           0
    3726 QQQ  233  NMP  H9   HGA2       0.090000        1.0080           0
    3727 QQQ  233  NMP  C6   CG2R53     0.286000       12.0110           0
    3728 QQQ  233  NMP  O7   OG2D1     -0.500000       15.9990           0
    3729 QQQ  234  NMP  C1   CG331     -0.161000       12.0110           0
    3730 QQQ  234  NMP  H1   HGA3       0.090000        1.0080           0
    3731 QQQ  234  NMP  H2   HGA3       0.090000        1.0080           0
    3732 QQQ  234  NMP  H3   HGA3       0.090000        1.0080           0
    3733 QQQ  234  NMP  N2   NG2R53    -0.098000       14.0070           0
    3734 QQQ  234  NMP  C3   CG3C52    -0.077000       12.0110           0
    3735 QQQ  234  NMP  H4   HGA2       0.090000        1.0080           0
    3736 QQQ  234  NMP  H5   HGA2       0.090000        1.0080           0
    3737 QQQ  234  NMP  C4   CG3C52    -0.233000       12.0110           0
    3738 QQQ  234  NMP  H6   HGA2       0.090000        1.0080           0
    3739 QQQ  234  NMP  H7   HGA2       0.090000        1.0080           0
    3740 QQQ  234  NMP  C5   CG3C52    -0.027000       12.0110           0
    3741 QQQ  234  NMP  H8   HGA2       0.090000        1.0080           0
    3742 QQQ  234  NMP  H9   HGA2       0.090000        1.0080           0
    3743 QQQ  234  NMP  C6   CG2R53     0.286000       12.0110           0
    3744 QQQ  234  NMP  O7   OG2D1     -0.500000       15.9990           0
    3745 QQQ  235  NMP  C1   CG331     -0.161000       12.0110           0
    3746 QQQ  235  NMP  H1   HGA3       0.090000        1.0080           0
    3747 QQQ  235  NMP  H2   HGA3       0.090000        1.0080           0
    3748 QQQ  235  NMP  H3   HGA3       0.090000        1.0080           0
    3749 QQQ  235  NMP  N2   NG2R53    -0.098000       14.0070           0
    3750 QQQ  235  NMP  C3   CG3C52    -0.077000       12.0110           0
    3751 QQQ  235  NMP  H4   HGA2       0.090000        1.0080           0
    3752 QQQ  235  NMP  H5   HGA2       0.090000        1.0080           0
    3753 QQQ  235  NMP  C4   CG3C52    -0.233000       12.0110           0
    3754 QQQ  235  NMP  H6   HGA2       0.090000        1.0080           0
    3755 QQQ  235  NMP  H7   HGA2       0.090000        1.0080           0
    3756 QQQ  235  NMP  C5   CG3C52    -0.027000       12.0110           0
    3757 QQQ  235  NMP  H8   HGA2       0.090000        1.0080           0
    3758 QQQ  235  NMP  H9   HGA2       0.090000        1.0080           0
    3759 QQQ  235  NMP  C6   CG2R53     0.286000       12.0110           0
    3760 QQQ  235  NMP  O7   OG2D1     -0.500000       15.9990           0
    3761 QQQ  236  NMP  C1   CG331     -0.161000       12.0110           0
    3762 QQQ  236  NMP  H1   HGA3       0.090000        1.0080           0
    3763 QQQ  236  NMP  H2   HGA3       0.090000        1.0080           0
    3764 QQQ  236  NMP  H3   HGA3       0.090000        1.0080           0
    3765 QQQ  236  NMP  N2   NG2R53    -0.098000       14.0070           0
    3766 QQQ  236  NMP  C3   CG3C52    -0.077000       12.0110           0
    3767 QQQ  236  NMP  H4   HGA2       0.090000        1.0080           0
    3768 QQQ  236  NMP  H5   HGA2       0.090000        1.0080           0
    3769 QQQ  236  NMP  C4   CG3C52    -0.233000       12.0110           0
    3770 QQQ  236  NMP  H6   HGA2       0.090000        1.0080           0
    3771 QQQ  236  NMP  H7   HGA2       0.090000        1.0080           0
    3772 QQQ  236  NMP  C5   CG3C52    -0.027000       12.0110           0
    3773 QQQ  236  NMP  H8   HGA2       0.090000        1.0080           0
    3774 QQQ  236  NMP  H9   HGA2       0.090000        1.0080           0
    3775 QQQ  236  NMP  C6   CG2R53     0.286000       12.0110           0
    3776 QQQ  236  NMP  O7   OG2D1     -0.500000       15.9990           0
    3777 QQQ  237  NMP  C1   CG331     -0.161000       12.0110           0
    3778 QQQ  237  NMP  H1   HGA3       0.090000        1.0080           0
    3779 QQQ  237  NMP  H2   HGA3       0.090000        1.0080           0
    3780 QQQ  237  NMP  H3   HGA3       0.090000        1.0080           0
    3781 QQQ  237  NMP  N2   NG2R53    -0.098000       14.0070           0
    3782 QQQ  237  NMP  C3   CG3C52    -0.077000       12.0110           0
    3783 QQQ  237  NMP  H4   HGA2       0.090000        1.0080           0
    3784 QQQ  237  NMP  H5   HGA2       0.090000        1.0080           0
    3785 QQQ  237  NMP  C4   CG3C52    -0.233000       12.0110           0
    3786 QQQ  237  NMP  H6   HGA2       0.090000        1.0080           0
    3787 QQQ  237  NMP  H7   HGA2       0.090000        1.0080           0
    3788 QQQ  237  NMP  C5   CG3C52    -0.027000       12.0110           0
    3789 QQQ  237  NMP  H8   HGA2       0.090000        1.0080           0
    3790 QQQ  237  NMP  H9   HGA2       0.090000        1.0080           0
    3791 QQQ  237  NMP  C6   CG2R53     0.286000       12.0110           0
    3792 QQQ  237  NMP  O7   OG2D1     -0.500000       15.9990           0
    3793 QQQ  238  NMP  C1   CG331     -0.161000       12.0110           0
    3794 QQQ  238  NMP  H1   HGA3       0.090000        1.0080           0
    3795 QQQ  238  NMP  H2   HGA3       0.090000        1.0080           0
    3796 QQQ  238  NMP  H3   HGA3       0.090000        1.0080           0
    3797 QQQ  238  NMP  N2   NG2R53    -0.098000       14.0070           0
    3798 QQQ  238  NMP  C3   CG3C52    -0.077000       12.0110           0
    3799 QQQ  238  NMP  H4   HGA2       0.090000        1.0080           0
    3800 QQQ  238  NMP  H5   HGA2       0.090000        1.0080           0
    3801 QQQ  238  NMP  C4   CG3C52    -0.233000       12.0110           0
    3802 QQQ  238  NMP  H6   HGA2       0.090000        1.0080           0
    3803 QQQ  238  NMP  H7   HGA2       0.090000        1.0080           0
    3804 QQQ  238  NMP  C5   CG3C52    -0.027000       12.0110           0
    3805 QQQ  238  NMP  H8   HGA2       0.090000        1.0080           0
    3806 QQQ  238  NMP  H9   HGA2       0.090000        1.0080           0
    3807 QQQ  238  NMP  C6   CG2R53     0.286000       12.0110           0
    3808 QQQ  238  NMP  O7   OG2D1     -0.500000       15.9990           0
    3809 QQQ  239  NMP  C1   CG331     -0.161000       12.0110           0
    3810 QQQ  239  NMP  H1   HGA3       0.090000        1.0080           0
    3811 QQQ  239  NMP  H2   HGA3       0.090000        1.0080           0
    3812 QQQ  239  NMP  H3   HGA3       0.090000        1.0080           0
    3813 QQQ  239  NMP  N2   NG2R53    -0.098000       14.0070           0
    3814 QQQ  239  NMP  C3   CG3C52    -0.077000       12.0110           0
    3815 QQQ  239  NMP  H4   HGA2       0.090000        1.0080           0
    3816 QQQ  239  NMP  H5   HGA2       0.090000        1.0080           0
    3817 QQQ  239  NMP  C4   CG3C52    -0.233000       12.0110           0
    3818 QQQ  239  NMP  H6   HGA2       0.090000        1.0080           0
    3819 QQQ  239  NMP  H7   HGA2       0.090000        1.0080           0
    3820 QQQ  239  NMP  C5   CG3C52    -0.027000       12.0110           0
    3821 QQQ  239  NMP  H8   HGA2       0.090000        1.0080           0
    3822 QQQ  239  NMP  H9   HGA2       0.090000        1.0080           0
    3823 QQQ  239  NMP  C6   CG2R53     0.286000       12.0110           0
    3824 QQQ  239  NMP  O7   OG2D1     -0.500000       15.9990           0
    3825 QQQ  240  NMP  C1   CG331     -0.161000       12.0110           0
    3826 QQQ  240  NMP  H1   HGA3       0.090000        1.0080           0
    3827 QQQ  240  NMP  H2   HGA3       0.090000        1.0080           0
    3828 QQQ  240  NMP  H3   HGA3       0.090000        1.0080           0
    3829 QQQ  240  NMP  N2   NG2R53    -0.098000       14.0070           0
    3830 QQQ  240  NMP  C3   CG3C52    -0.077000       12.0110           0
    3831 QQQ  240  NMP  H4   HGA2       0.090000        1.0080           0
    3832 QQQ  240  NMP  H5   HGA2       0.090000        1.0080           0
    3833 QQQ  240  NMP  C4   CG3C52    -0.233000       12.0110           0
    3834 QQQ  240  NMP  H6   HGA2       0.090000        1.0080           0
    3835 QQQ  240  NMP  H7   HGA2       0.090000        1.0080           0
    3836 QQQ  240  NMP  C5   CG3C52    -0.027000       12.0110           0
    3837 QQQ  240  NMP  H8   HGA2       0.090000        1.0080           0
    3838 QQQ  240  NMP  H9   HGA2       0.090000        1.0080           0
    3839 QQQ  240  NMP  C6   CG2R53     0.286000       12.0110           0
    3840 QQQ  240  NMP  O7   OG2D1     -0.500000       15.9990           0
    3841 QQQ  241  NMP  C1   CG331     -0.161000       12.0110           0
    3842 QQQ  241  NMP  H1   HGA3       0.090000        1.0080           0
    3843 QQQ  241  NMP  H2   HGA3       0.090000        1.0080           0
    3844 QQQ  241  NMP  H3   HGA3       0.090000        1.0080           0
    3845 QQQ  241  NMP  N2   NG2R53    -0.098000       14.0070           0
    3846 QQQ  241  NMP  C3   CG3C52    -0.077000       12.0110           0
    3847 QQQ  241  NMP  H4   HGA2       0.090000        1.0080           0
    3848 QQQ  241  NMP  H5   HGA2       0.090000        1.0080           0
    3849 QQQ  241  NMP  C4   CG3C52    -0.233000       12.0110           0
    3850 QQQ  241  NMP  H6   HGA2       0.090000        1.0080           0
    3851 QQQ  241  NMP  H7   HGA2       0.090000        1.0080           0
    3852 QQQ  241  NMP  C5   CG3C52    -0.027000       12.0110           0
    3853 QQQ  241  NMP  H8   HGA2       0.090000        1.0080           0
    3854 QQQ  241  NMP  H9   HGA2       0.090000        1.0080           0
    3855 QQQ  241  NMP  C6   CG2R53     0.286000       12.0110           0
    3856 QQQ  241  NMP  O7   OG2D1     -0.500000       15.9990           0
    3857 QQQ  242  NMP  C1   CG331     -0.161000       12.0110           0
    3858 QQQ  242  NMP  H1   HGA3       0.090000        1.0080           0
    3859 QQQ  242  NMP  H2   HGA3       0.090000        1.0080           0
    3860 QQQ  242  NMP  H3   HGA3       0.090000        1.0080           0
    3861 QQQ  242  NMP  N2   NG2R53    -0.098000       14.0070           0
    3862 QQQ  242  NMP  C3   CG3C52    -0.077000       12.0110           0
    3863 QQQ  242  NMP  H4   HGA2       0.090000        1.0080           0
    3864 QQQ  242  NMP  H5   HGA2       0.090000        1.0080           0
    3865 QQQ  242  NMP  C4   CG3C52    -0.233000       12.0110           0
    3866 QQQ  242  NMP  H6   HGA2       0.090000        1.0080           0
    3867 QQQ  242  NMP  H7   HGA2       0.090000        1.0080           0
    3868 QQQ  242  NMP  C5   CG3C52    -0.027000       12.0110           0
    3869 QQQ  242  NMP  H8   HGA2       0.090000        1.0080           0
    3870 QQQ  242  NMP  H9   HGA2       0.090000        1.0080           0
    3871 QQQ  242  NMP  C6   CG2R53     0.286000       12.0110           0
    3872 QQQ  242  NMP  O7   OG2D1     -0.500000       15.9990           0
    3873 QQQ  243  NMP  C1   CG331     -0.161000       12.0110           0
    3874 QQQ  243  NMP  H1   HGA3       0.090000        1.0080           0
    3875 QQQ  243  NMP  H2   HGA3       0.090000        1.0080           0
    3876 QQQ  243  NMP  H3   HGA3       0.090000        1.0080           0
    3877 QQQ  243  NMP  N2   NG2R53    -0.098000       14.0070           0
    3878 QQQ  243  NMP  C3   CG3C52    -0.077000       12.0110           0
    3879 QQQ  243  NMP  H4   HGA2       0.090000        1.0080           0
    3880 QQQ  243  NMP  H5   HGA2       0.090000        1.0080           0
    3881 QQQ  243  NMP  C4   CG3C52    -0.233000       12.0110           0
    3882 QQQ  243  NMP  H6   HGA2       0.090000        1.0080           0
    3883 QQQ  243  NMP  H7   HGA2       0.090000        1.0080           0
    3884 QQQ  243  NMP  C5   CG3C52    -0.027000       12.0110           0
    3885 QQQ  243  NMP  H8   HGA2       0.090000        1.0080           0
    3886 QQQ  243  NMP  H9   HGA2       0.090000        1.0080           0
    3887 QQQ  243  NMP  C6   CG2R53     0.286000       12.0110           0
    3888 QQQ  243  NMP  O7   OG2D1     -0.500000       15.9990           0
    3889 QQQ  244  NMP  C1   CG331     -0.161000       12.0110           0
    3890 QQQ  244  NMP  H1   HGA3       0.090000        1.0080           0
    3891 QQQ  244  NMP  H2   HGA3       0.090000        1.0080           0
    3892 QQQ  244  NMP  H3   HGA3       0.090000        1.0080           0
    3893 QQQ  244  NMP  N2   NG2R53    -0.098000       14.0070           0
    3894 QQQ  244  NMP  C3   CG3C52    -0.077000       12.0110           0
    3895 QQQ  244  NMP  H4   HGA2       0.090000        1.0080           0
    3896 QQQ  244  NMP  H5   HGA2       0.090000        1.0080           0
    3897 QQQ  244  NMP  C4   CG3C52    -0.233000       12.0110           0
    3898 QQQ  244  NMP  H6   HGA2       0.090000        1.0080           0
    3899 QQQ  244  NMP  H7   HGA2       0.090000        1.0080           0
    3900 QQQ  244  NMP  C5   CG3C52    -0.027000       12.0110           0
    3901 QQQ  244  NMP  H8   HGA2       0.090000        1.0080           0
    3902 QQQ  244  NMP  H9   HGA2       0.090000        1.0080           0
    3903 QQQ  244  NMP  C6   CG2R53     0.286000       12.0110           0
    3904 QQQ  244  NMP  O7   OG2D1     -0.500000       15.9990           0
    3905 QQQ  245  NMP  C1   CG331     -0.161000       12.0110           0
    3906 QQQ  245  NMP  H1   HGA3       0.090000        1.0080           0
    3907 QQQ  245  NMP  H2   HGA3       0.090000        1.0080           0
    3908 QQQ  245  NMP  H3   HGA3       0.090000        1.0080           0
    3909 QQQ  245  NMP  N2   NG2R53    -0.098000       14.0070           0
    3910 QQQ  245  NMP  C3   CG3C52    -0.077000       12.0110           0
    3911 QQQ  245  NMP  H4   HGA2       0.090000        1.0080           0
    3912 QQQ  245  NMP  H5   HGA2       0.090000        1.0080           0
    3913 QQQ  245  NMP  C4   CG3C52    -0.233000       12.0110           0
    3914 QQQ  245  NMP  H6   HGA2       0.090000        1.0080           0
    3915 QQQ  245  NMP  H7   HGA2       0.090000        1.0080           0
    3916 QQQ  245  NMP  C5   CG3C52    -0.027000       12.0110           0
    3917 QQQ  245  NMP  H8   HGA2       0.090000        1.0080           0
    3918 QQQ  245  NMP  H9   HGA2       0.090000        1.0080           0
    3919 QQQ  245  NMP  C6   CG2R53     0.286000       12.0110           0
    3920 QQQ  245  NMP  O7   OG2D1     -0.500000       15.9990           0
    3921 QQQ  246  NMP  C1   CG331     -0.161000       12.0110           0
    3922 QQQ  246  NMP  H1   HGA3       0.090000        1.0080           0
    3923 QQQ  246  NMP  H2   HGA3       0.090000        1.0080           0
    3924 QQQ  246  NMP  H3   HGA3       0.090000        1.0080           0
    3925 QQQ  246  NMP  N2   NG2R53    -0.098000       14.0070           0
    3926 QQQ  246  NMP  C3   CG3C52    -0.077000       12.0110           0
    3927 QQQ  246  NMP  H4   HGA2       0.090000        1.0080           0
    3928 QQQ  246  NMP  H5   HGA2       0.090000        1.0080           0
    3929 QQQ  246  NMP  C4   CG3C52    -0.233000       12.0110           0
    3930 QQQ  246  NMP  H6   HGA2       0.090000        1.0080           0
    3931 QQQ  246  NMP  H7   HGA2       0.090000        1.0080           0
    3932 QQQ  246  NMP  C5   CG3C52    -0.027000       12.0110           0
    3933 QQQ  246  NMP  H8   HGA2       0.090000        1.0080           0
    3934 QQQ  246  NMP  H9   HGA2       0.090000        1.0080           0
    3935 QQQ  246  NMP  C6   CG2R53     0.286000       12.0110           0
    3936 QQQ  246  NMP  O7   OG2D1     -0.500000       15.9990           0
    3937 QQQ  247  NMP  C1   CG331     -0.161000       12.0110           0
    3938 QQQ  247  NMP  H1   HGA3       0.090000        1.0080           0
    3939 QQQ  247  NMP  H2   HGA3       0.090000        1.0080           0
    3940 QQQ  247  NMP  H3   HGA3       0.090000        1.0080           0
    3941 QQQ  247  NMP  N2   NG2R53    -0.098000       14.0070           0
    3942 QQQ  247  NMP  C3   CG3C52    -0.077000       12.0110           0
    3943 QQQ  247  NMP  H4   HGA2       0.090000        1.0080           0
    3944 QQQ  247  NMP  H5   HGA2       0.090000        1.0080           0
    3945 QQQ  247  NMP  C4   CG3C52    -0.233000       12.0110           0
    3946 QQQ  247  NMP  H6   HGA2       0.090000        1.0080           0
    3947 QQQ  247  NMP  H7   HGA2       0.090000        1.0080           0
    3948 QQQ  247  NMP  C5   CG3C52    -0.027000       12.0110           0
    3949 QQQ  247  NMP  H8   HGA2       0.090000        1.0080           0
    3950 QQQ  247  NMP  H9   HGA2       0.090000        1.0080           0
    3951 QQQ  247  NMP  C6   CG2R53     0.286000       12.0110           0
    3952 QQQ  247  NMP  O7   OG2D1     -0.500000       15.9990           0
    3953 QQQ  248  NMP  C1   CG331     -0.161000       12.0110           0
    3954 QQQ  248  NMP  H1   HGA3       0.090000        1.0080           0
    3955 QQQ  248  NMP  H2   HGA3       0.090000        1.0080           0
    3956 QQQ  248  NMP  H3   HGA3       0.090000        1.0080           0
    3957 QQQ  248  NMP  N2   NG2R53    -0.098000       14.0070           0
    3958 QQQ  248  NMP  C3   CG3C52    -0.077000       12.0110           0
    3959 QQQ  248  NMP  H4   HGA2       0.090000        1.0080           0
    3960 QQQ  248  NMP  H5   HGA2       0.090000        1.0080           0
    3961 QQQ  248  NMP  C4   CG3C52    -0.233000       12.0110           0
    3962 QQQ  248  NMP  H6   HGA2       0.090000        1.0080           0
    3963 QQQ  248  NMP  H7   HGA2       0.090000        1.0080           0
    3964 QQQ  248  NMP  C5   CG3C52    -0.027000       12.0110           0
    3965 QQQ  248  NMP  H8   HGA2       0.090000        1.0080           0
    3966 QQQ  248  NMP  H9   HGA2       0.090000        1.0080           0
    3967 QQQ  248  NMP  C6   CG2R53     0.286000       12.0110           0
    3968 QQQ  248  NMP  O7   OG2D1     -0.500000       15.9990           0
    3969 QQQ  249  NMP  C1   CG331     -0.161000       12.0110           0
    3970 QQQ  249  NMP  H1   HGA3       0.090000        1.0080           0
    3971 QQQ  249  NMP  H2   HGA3       0.090000        1.0080           0
    3972 QQQ  249  NMP  H3   HGA3       0.090000        1.0080           0
    3973 QQQ  249  NMP  N2   NG2R53    -0.098000       14.0070           0
    3974 QQQ  249  NMP  C3   CG3C52    -0.077000       12.0110           0
    3975 QQQ  249  NMP  H4   HGA2       0.090000        1.0080           0
    3976 QQQ  249  NMP  H5   HGA2       0.090000        1.0080           0
    3977 QQQ  249  NMP  C4   CG3C52    -0.233000       12.0110           0
    3978 QQQ  249  NMP  H6   HGA2       0.090000        1.0080           0
    3979 QQQ  249  NMP  H7   HGA2       0.090000        1.0080           0
    3980 QQQ  249  NMP  C5   CG3C52    -0.027000       12.0110           0
    3981 QQQ  249  NMP  H8   HGA2       0.090000        1.0080           0
    3982 QQQ  249  NMP  H9   HGA2       0.090000        1.0080           0
    3983 QQQ  249  NMP  C6   CG2R53     0.286000       12.0110           0
    3984 QQQ  249  NMP  O7   OG2D1     -0.500000       15.9990           0
    3985 QQQ  250  NMP  C1   CG331     -0.161000       12.0110           0
    3986 QQQ  250  NMP  H1   HGA3       0.090000        1.0080           0
    3987 QQQ  250  NMP  H2   HGA3       0.090000        1.0080           0
    3988 QQQ  250  NMP  H3   HGA3       0.090000        1.0080           0
    3989 QQQ  250  NMP  N2   NG2R53    -0.098000       14.0070           0
    3990 QQQ  250  NMP  C3   CG3C52    -0.077000       12.0110           0
    3991 QQQ  250  NMP  H4   HGA2       0.090000        1.0080           0
    3992 QQQ  250  NMP  H5   HGA2       0.090000        1.0080           0
    3993 QQQ  250  NMP  C4   CG3C52    -0.233000       12.0110           0
    3994 QQQ  250  NMP  H6   HGA2       0.090000        1.0080           0
    3995 QQQ  250  NMP  H7   HGA2       0.090000        1.0080           0
    3996 QQQ  250  NMP  C5   CG3C52    -0.027000       12.0110           0
    3997 QQQ  250  NMP  H8   HGA2       0.090000        1.0080           0
    3998 QQQ  250  NMP  H9   HGA2       0.090000        1.0080           0
    3999 QQQ  250  NMP  C6   CG2R53     0.286000       12.0110           0
    4000 QQQ  250  NMP  O7   OG2D1     -0.500000       15.9990           0
    4001 QQQ  251  NMP  C1   CG331     -0.161000       12.0110           0
    4002 QQQ  251  NMP  H1   HGA3       0.090000        1.0080           0
    4003 QQQ  251  NMP  H2   HGA3       0.090000        1.0080           0
    4004 QQQ  251  NMP  H3   HGA3       0.090000        1.0080           0
    4005 QQQ  251  NMP  N2   NG2R53    -0.098000       14.0070           0
    4006 QQQ  251  NMP  C3   CG3C52    -0.077000       12.0110           0
    4007 QQQ  251  NMP  H4   HGA2       0.090000        1.0080           0
    4008 QQQ  251  NMP  H5   HGA2       0.090000        1.0080           0
    4009 QQQ  251  NMP  C4   CG3C52    -0.233000       12.0110           0
    4010 QQQ  251  NMP  H6   HGA2       0.090000        1.0080           0
    4011 QQQ  251  NMP  H7   HGA2       0.090000        1.0080           0
    4012 QQQ  251  NMP  C5   CG3C52    -0.027000       12.0110           0
    4013 QQQ  251  NMP  H8   HGA2       0.090000        1.0080           0
    4014 QQQ  251  NMP  H9   HGA2       0.090000        1.0080           0
    4015 QQQ  251  NMP  C6   CG2R53     0.286000       12.0110           0
    4016 QQQ  251  NMP  O7   OG2D1     -0.500000       15.9990           0
    4017 QQQ  252  NMP  C1   CG331     -0.161000       12.0110           0
    4018 QQQ  252  NMP  H1   HGA3       0.090000        1.0080           0
    4019 QQQ  252  NMP  H2   HGA3       0.090000        1.0080           0
    4020 QQQ  252  NMP  H3   HGA3       0.090000        1.0080           0
    4021 QQQ  252  NMP  N2   NG2R53    -0.098000       14.0070           0
    4022 QQQ  252  NMP  C3   CG3C52    -0.077000       12.0110           0
    4023 QQQ  252  NMP  H4   HGA2       0.090000        1.0080           0
    4024 QQQ  252  NMP  H5   HGA2       0.090000        1.0080           0
    4025 QQQ  252  NMP  C4   CG3C52    -0.233000       12.0110           0
    4026 QQQ  252  NMP  H6   HGA2       0.090000        1.0080           0
    4027 QQQ  252  NMP  H7   HGA2       0.090000        1.0080           0
    4028 QQQ  252  NMP  C5   CG3C52    -0.027000       12.0110           0
    4029 QQQ  252  NMP  H8   HGA2       0.090000        1.0080           0
    4030 QQQ  252  NMP  H9   HGA2       0.090000        1.0080           0
    4031 QQQ  252  NMP  C6   CG2R53     0.286000       12.0110           0
    4032 QQQ  252  NMP  O7   OG2D1     -0.500000       15.9990           0
    4033 QQQ  253  NMP  C1   CG331     -0.161000       12.0110           0
    4034 QQQ  253  NMP  H1   HGA3       0.090000        1.0080           0
    4035 QQQ  253  NMP  H2   HGA3       0.090000        1.0080           0
    4036 QQQ  253  NMP  H3   HGA3       0.090000        1.0080           0
    4037 QQQ  253  NMP  N2   NG2R53    -0.098000       14.0070           0
    4038 QQQ  253  NMP  C3   CG3C52    -0.077000       12.0110           0
    4039 QQQ  253  NMP  H4   HGA2       0.090000        1.0080           0
    4040 QQQ  253  NMP  H5   HGA2       0.090000        1.0080           0
    4041 QQQ  253  NMP  C4   CG3C52    -0.233000       12.0110           0
    4042 QQQ  253  NMP  H6   HGA2       0.090000        1.0080           0
    4043 QQQ  253  NMP  H7   HGA2       0.090000        1.0080           0
    4044 QQQ  253  NMP  C5   CG3C52    -0.027000       12.0110           0
    4045 QQQ  253  NMP  H8   HGA2       0.090000        1.0080           0
    4046 QQQ  253  NMP  H9   HGA2       0.090000        1.0080           0
    4047 QQQ  253  NMP  C6   CG2R53     0.286000       12.0110           0
    4048 QQQ  253  NMP  O7   OG2D1     -0.500000       15.9990           0
    4049 QQQ  254  NMP  C1   CG331     -0.161000       12.0110           0
    4050 QQQ  254  NMP  H1   HGA3       0.090000        1.0080           0
    4051 QQQ  254  NMP  H2   HGA3       0.090000        1.0080           0
    4052 QQQ  254  NMP  H3   HGA3       0.090000        1.0080           0
    4053 QQQ  254  NMP  N2   NG2R53    -0.098000       14.0070           0
    4054 QQQ  254  NMP  C3   CG3C52    -0.077000       12.0110           0
    4055 QQQ  254  NMP  H4   HGA2       0.090000        1.0080           0
    4056 QQQ  254  NMP  H5   HGA2       0.090000        1.0080           0
    4057 QQQ  254  NMP  C4   CG3C52    -0.233000       12.0110           0
    4058 QQQ  254  NMP  H6   HGA2       0.090000        1.0080           0
    4059 QQQ  254  NMP  H7   HGA2       0.090000        1.0080           0
    4060 QQQ  254  NMP  C5   CG3C52    -0.027000       12.0110           0
    4061 QQQ  254  NMP  H8   HGA2       0.090000        1.0080           0
    4062 QQQ  254  NMP  H9   HGA2       0.090000        1.0080           0
    4063 QQQ  254  NMP  C6   CG2R53     0.286000       12.0110           0
    4064 QQQ  254  NMP  O7   OG2D1     -0.500000       15.9990           0
    4065 QQQ  255  NMP  C1   CG331     -0.161000       12.0110           0
    4066 QQQ  255  NMP  H1   HGA3       0.090000        1.0080           0
    4067 QQQ  255  NMP  H2   HGA3       0.090000        1.0080           0
    4068 QQQ  255  NMP  H3   HGA3       0.090000        1.0080           0
    4069 QQQ  255  NMP  N2   NG2R53    -0.098000       14.0070           0
    4070 QQQ  255  NMP  C3   CG3C52    -0.077000       12.0110           0
    4071 QQQ  255  NMP  H4   HGA2       0.090000        1.0080           0
    4072 QQQ  255  NMP  H5   HGA2       0.090000        1.0080           0
    4073 QQQ  255  NMP  C4   CG3C52    -0.233000       12.0110           0
    4074 QQQ  255  NMP  H6   HGA2       0.090000        1.0080           0
    4075 QQQ  255  NMP  H7   HGA2       0.090000        1.0080           0
    4076 QQQ  255  NMP  C5   CG3C52    -0.027000       12.0110           0
    4077 QQQ  255  NMP  H8   HGA2       0.090000        1.0080           0
    4078 QQQ  255  NMP  H9   HGA2       0.090000        1.0080           0
    4079 QQQ  255  NMP  C6   CG2R53     0.286000       12.0110           0
    4080 QQQ  255  NMP  O7   OG2D1     -0.500000       15.9990           0
    4081 QQQ  256  NMP  C1   CG331     -0.161000       12.0110           0
    4082 QQQ  256  NMP  H1   HGA3       0.090000        1.0080           0
    4083 QQQ  256  NMP  H2   HGA3       0.090000        1.0080           0
    4084 QQQ  256  NMP  H3   HGA3       0.090000        1.0080           0
    4085 QQQ  256  NMP  N2   NG2R53    -0.098000       14.0070           0
    4086 QQQ  256  NMP  C3   CG3C52    -0.077000       12.0110           0
    4087 QQQ  256  NMP  H4   HGA2       0.090000        1.0080           0
    4088 QQQ  256  NMP  H5   HGA2       0.090000        1.0080           0
    4089 QQQ  256  NMP  C4   CG3C52    -0.233000       12.0110           0
    4090 QQQ  256  NMP  H6   HGA2       0.090000        1.0080           0
    4091 QQQ  256  NMP  H7   HGA2       0.090000        1.0080           0
    4092 QQQ  256  NMP  C5   CG3C52    -0.027000       12.0110           0
    4093 QQQ  256  NMP  H8   HGA2       0.090000        1.0080           0
    4094 QQQ  256  NMP  H9   HGA2       0.090000        1.0080           0
    4095 QQQ  256  NMP  C6   CG2R53     0.286000       12.0110           0
    4096 QQQ  256  NMP  O7   OG2D1     -0.500000       15.9990           0
    4097 QQQ  257  NMP  C1   CG331     -0.161000       12.0110           0
    4098 QQQ  257  NMP  H1   HGA3       0.090000        1.0080           0
    4099 QQQ  257  NMP  H2   HGA3       0.090000        1.0080           0
    4100 QQQ  257  NMP  H3   HGA3       0.090000        1.0080           0
    4101 QQQ  257  NMP  N2   NG2R53    -0.098000       14.0070           0
    4102 QQQ  257  NMP  C3   CG3C52    -0.077000       12.0110           0
    4103 QQQ  257  NMP  H4   HGA2       0.090000        1.0080           0
    4104 QQQ  257  NMP  H5   HGA2       0.090000        1.0080           0
    4105 QQQ  257  NMP  C4   CG3C52    -0.233000       12.0110           0
    4106 QQQ  257  NMP  H6   HGA2       0.090000        1.0080           0
    4107 QQQ  257  NMP  H7   HGA2       0.090000        1.0080           0
    4108 QQQ  257  NMP  C5   CG3C52    -0.027000       12.0110           0
    4109 QQQ  257  NMP  H8   HGA2       0.090000        1.0080           0
    4110 QQQ  257  NMP  H9   HGA2       0.090000        1.0080           0
    4111 QQQ  257  NMP  C6   CG2R53     0.286000       12.0110           0
    4112 QQQ  257  NMP  O7   OG2D1     -0.500000       15.9990           0
    4113 QQQ  258  NMP  C1   CG331     -0.161000       12.0110           0
    4114 QQQ  258  NMP  H1   HGA3       0.090000        1.0080           0
    4115 QQQ  258  NMP  H2   HGA3       0.090000        1.0080           0
    4116 QQQ  258  NMP  H3   HGA3       0.090000        1.0080           0
    4117 QQQ  258  NMP  N2   NG2R53    -0.098000       14.0070           0
    4118 QQQ  258  NMP  C3   CG3C52    -0.077000       12.0110           0
    4119 QQQ  258  NMP  H4   HGA2       0.090000        1.0080           0
    4120 QQQ  258  NMP  H5   HGA2       0.090000        1.0080           0
    4121 QQQ  258  NMP  C4   CG3C52    -0.233000       12.0110           0
    4122 QQQ  258  NMP  H6   HGA2       0.090000        1.0080           0
    4123 QQQ  258  NMP  H7   HGA2       0.090000        1.0080           0
    4124 QQQ  258  NMP  C5   CG3C52    -0.027000       12.0110           0
    4125 QQQ  258  NMP  H8   HGA2       0.090000        1.0080           0
    4126 QQQ  258  NMP  H9   HGA2       0.090000        1.0080           0
    4127 QQQ  258  NMP  C6   CG2R53     0.286000       12.0110           0
    4128 QQQ  258  NMP  O7   OG2D1     -0.500000       15.9990           0
    4129 QQQ  259  NMP  C1   CG331     -0.161000       12.0110           0
    4130 QQQ  259  NMP  H1   HGA3       0.090000        1.0080           0
    4131 QQQ  259  NMP  H2   HGA3       0.090000        1.0080           0
    4132 QQQ  259  NMP  H3   HGA3       0.090000        1.0080           0
    4133 QQQ  259  NMP  N2   NG2R53    -0.098000       14.0070           0
    4134 QQQ  259  NMP  C3   CG3C52    -0.077000       12.0110           0
    4135 QQQ  259  NMP  H4   HGA2       0.090000        1.0080           0
    4136 QQQ  259  NMP  H5   HGA2       0.090000        1.0080           0
    4137 QQQ  259  NMP  C4   CG3C52    -0.233000       12.0110           0
    4138 QQQ  259  NMP  H6   HGA2       0.090000        1.0080           0
    4139 QQQ  259  NMP  H7   HGA2       0.090000        1.0080           0
    4140 QQQ  259  NMP  C5   CG3C52    -0.027000       12.0110           0
    4141 QQQ  259  NMP  H8   HGA2       0.090000        1.0080           0
    4142 QQQ  259  NMP  H9   HGA2       0.090000        1.0080           0
    4143 QQQ  259  NMP  C6   CG2R53     0.286000       12.0110           0
    4144 QQQ  259  NMP  O7   OG2D1     -0.500000       15.9990           0
    4145 QQQ  260  NMP  C1   CG331     -0.161000       12.0110           0
    4146 QQQ  260  NMP  H1   HGA3       0.090000        1.0080           0
    4147 QQQ  260  NMP  H2   HGA3       0.090000        1.0080           0
    4148 QQQ  260  NMP  H3   HGA3       0.090000        1.0080           0
    4149 QQQ  260  NMP  N2   NG2R53    -0.098000       14.0070           0
    4150 QQQ  260  NMP  C3   CG3C52    -0.077000       12.0110           0
    4151 QQQ  260  NMP  H4   HGA2       0.090000        1.0080           0
    4152 QQQ  260  NMP  H5   HGA2       0.090000        1.0080           0
    4153 QQQ  260  NMP  C4   CG3C52    -0.233000       12.0110           0
    4154 QQQ  260  NMP  H6   HGA2       0.090000        1.0080           0
    4155 QQQ  260  NMP  H7   HGA2       0.090000        1.0080           0
    4156 QQQ  260  NMP  C5   CG3C52    -0.027000       12.0110           0
    4157 QQQ  260  NMP  H8   HGA2       0.090000        1.0080           0
    4158 QQQ  260  NMP  H9   HGA2       0.090000        1.0080           0
    4159 QQQ  260  NMP  C6   CG2R53     0.286000       12.0110           0
    4160 QQQ  260  NMP  O7   OG2D1     -0.500000       15.9990           0
    4161 QQQ  261  NMP  C1   CG331     -0.161000       12.0110           0
    4162 QQQ  261  NMP  H1   HGA3       0.090000        1.0080           0
    4163 QQQ  261  NMP  H2   HGA3       0.090000        1.0080           0
    4164 QQQ  261  NMP  H3   HGA3       0.090000        1.0080           0
    4165 QQQ  261  NMP  N2   NG2R53    -0.098000       14.0070           0
    4166 QQQ  261  NMP  C3   CG3C52    -0.077000       12.0110           0
    4167 QQQ  261  NMP  H4   HGA2       0.090000        1.0080           0
    4168 QQQ  261  NMP  H5   HGA2       0.090000        1.0080           0
    4169 QQQ  261  NMP  C4   CG3C52    -0.233000       12.0110           0
    4170 QQQ  261  NMP  H6   HGA2       0.090000        1.0080           0
    4171 QQQ  261  NMP  H7   HGA2       0.090000        1.0080           0
    4172 QQQ  261  NMP  C5   CG3C52    -0.027000       12.0110           0
    4173 QQQ  261  NMP  H8   HGA2       0.090000        1.0080           0
    4174 QQQ  261  NMP  H9   HGA2       0.090000        1.0080           0
    4175 QQQ  261  NMP  C6   CG2R53     0.286000       12.0110           0
    4176 QQQ  261  NMP  O7   OG2D1     -0.500000       15.9990           0
    4177 QQQ  262  NMP  C1   CG331     -0.161000       12.0110           0
    4178 QQQ  262  NMP  H1   HGA3       0.090000        1.0080           0
    4179 QQQ  262  NMP  H2   HGA3       0.090000        1.0080           0
    4180 QQQ  262  NMP  H3   HGA3       0.090000        1.0080           0
    4181 QQQ  262  NMP  N2   NG2R53    -0.098000       14.0070           0
    4182 QQQ  262  NMP  C3   CG3C52    -0.077000       12.0110           0
    4183 QQQ  262  NMP  H4   HGA2       0.090000        1.0080           0
    4184 QQQ  262  NMP  H5   HGA2       0.090000        1.0080           0
    4185 QQQ  262  NMP  C4   CG3C52    -0.233000       12.0110           0
    4186 QQQ  262  NMP  H6   HGA2       0.090000        1.0080           0
    4187 QQQ  262  NMP  H7   HGA2       0.090000        1.0080           0
    4188 QQQ  262  NMP  C5   CG3C52    -0.027000       12.0110           0
    4189 QQQ  262  NMP  H8   HGA2       0.090000        1.0080           0
    4190 QQQ  262  NMP  H9   HGA2       0.090000        1.0080           0
    4191 QQQ  262  NMP  C6   CG2R53     0.286000       12.0110           0
    4192 QQQ  262  NMP  O7   OG2D1     -0.500000       15.9990           0
    4193 QQQ  263  NMP  C1   CG331     -0.161000       12.0110           0
    4194 QQQ  263  NMP  H1   HGA3       0.090000        1.0080           0
    4195 QQQ  263  NMP  H2   HGA3       0.090000        1.0080           0
    4196 QQQ  263  NMP  H3   HGA3       0.090000        1.0080           0
    4197 QQQ  263  NMP  N2   NG2R53    -0.098000       14.0070           0
    4198 QQQ  263  NMP  C3   CG3C52    -0.077000       12.0110           0
    4199 QQQ  263  NMP  H4   HGA2       0.090000        1.0080           0
    4200 QQQ  263  NMP  H5   HGA2       0.090000        1.0080           0
    4201 QQQ  263  NMP  C4   CG3C52    -0.233000       12.0110           0
    4202 QQQ  263  NMP  H6   HGA2       0.090000        1.0080           0
    4203 QQQ  263  NMP  H7   HGA2       0.090000        1.0080           0
    4204 QQQ  263  NMP  C5   CG3C52    -0.027000       12.0110           0
    4205 QQQ  263  NMP  H8   HGA2       0.090000        1.0080           0
    4206 QQQ  263  NMP  H9   HGA2       0.090000        1.0080           0
    4207 QQQ  263  NMP  C6   CG2R53     0.286000       12.0110           0
    4208 QQQ  263  NMP  O7   OG2D1     -0.500000       15.9990           0
    4209 QQQ  264  NMP  C1   CG331     -0.161000       12.0110           0
    4210 QQQ  264  NMP  H1   HGA3       0.090000        1.0080           0
    4211 QQQ  264  NMP  H2   HGA3       0.090000        1.0080           0
    4212 QQQ  264  NMP  H3   HGA3       0.090000        1.0080           0
    4213 QQQ  264  NMP  N2   NG2R53    -0.098000       14.0070           0
    4214 QQQ  264  NMP  C3   CG3C52    -0.077000       12.0110           0
    4215 QQQ  264  NMP  H4   HGA2       0.090000        1.0080           0
    4216 QQQ  264  NMP  H5   HGA2       0.090000        1.0080           0
    4217 QQQ  264  NMP  C4   CG3C52    -0.233000       12.0110           0
    4218 QQQ  264  NMP  H6   HGA2       0.090000        1.0080           0
    4219 QQQ  264  NMP  H7   HGA2       0.090000        1.0080           0
    4220 QQQ  264  NMP  C5   CG3C52    -0.027000       12.0110           0
    4221 QQQ  264  NMP  H8   HGA2       0.090000        1.0080           0
    4222 QQQ  264  NMP  H9   HGA2       0.090000        1.0080           0
    4223 QQQ  264  NMP  C6   CG2R53     0.286000       12.0110           0
    4224 QQQ  264  NMP  O7   OG2D1     -0.500000       15.9990           0
    4225 QQQ  265  NMP  C1   CG331     -0.161000       12.0110           0
    4226 QQQ  265  NMP  H1   HGA3       0.090000        1.0080           0
    4227 QQQ  265  NMP  H2   HGA3       0.090000        1.0080           0
    4228 QQQ  265  NMP  H3   HGA3       0.090000        1.0080           0
    4229 QQQ  265  NMP  N2   NG2R53    -0.098000       14.0070           0
    4230 QQQ  265  NMP  C3   CG3C52    -0.077000       12.0110           0
    4231 QQQ  265  NMP  H4   HGA2       0.090000        1.0080           0
    4232 QQQ  265  NMP  H5   HGA2       0.090000        1.0080           0
    4233 QQQ  265  NMP  C4   CG3C52    -0.233000       12.0110           0
    4234 QQQ  265  NMP  H6   HGA2       0.090000        1.0080           0
    4235 QQQ  265  NMP  H7   HGA2       0.090000        1.0080           0
    4236 QQQ  265  NMP  C5   CG3C52    -0.027000       12.0110           0
    4237 QQQ  265  NMP  H8   HGA2       0.090000        1.0080           0
    4238 QQQ  265  NMP  H9   HGA2       0.090000        1.0080           0
    4239 QQQ  265  NMP  C6   CG2R53     0.286000       12.0110           0
    4240 QQQ  265  NMP  O7   OG2D1     -0.500000       15.9990           0
    4241 QQQ  266  NMP  C1   CG331     -0.161000       12.0110           0
    4242 QQQ  266  NMP  H1   HGA3       0.090000        1.0080           0
    4243 QQQ  266  NMP  H2   HGA3       0.090000        1.0080           0
    4244 QQQ  266  NMP  H3   HGA3       0.090000        1.0080           0
    4245 QQQ  266  NMP  N2   NG2R53    -0.098000       14.0070           0
    4246 QQQ  266  NMP  C3   CG3C52    -0.077000       12.0110           0
    4247 QQQ  266  NMP  H4   HGA2       0.090000        1.0080           0
    4248 QQQ  266  NMP  H5   HGA2       0.090000        1.0080           0
    4249 QQQ  266  NMP  C4   CG3C52    -0.233000       12.0110           0
    4250 QQQ  266  NMP  H6   HGA2       0.090000        1.0080           0
    4251 QQQ  266  NMP  H7   HGA2       0.090000        1.0080           0
    4252 QQQ  266  NMP  C5   CG3C52    -0.027000       12.0110           0
    4253 QQQ  266  NMP  H8   HGA2       0.090000        1.0080           0
    4254 QQQ  266  NMP  H9   HGA2       0.090000        1.0080           0
    4255 QQQ  266  NMP  C6   CG2R53     0.286000       12.0110           0
    4256 QQQ  266  NMP  O7   OG2D1     -0.500000       15.9990           0
    4257 QQQ  267  NMP  C1   CG331     -0.161000       12.0110           0
    4258 QQQ  267  NMP  H1   HGA3       0.090000        1.0080           0
    4259 QQQ  267  NMP  H2   HGA3       0.090000        1.0080           0
    4260 QQQ  267  NMP  H3   HGA3       0.090000        1.0080           0
    4261 QQQ  267  NMP  N2   NG2R53    -0.098000       14.0070           0
    4262 QQQ  267  NMP  C3   CG3C52    -0.077000       12.0110           0
    4263 QQQ  267  NMP  H4   HGA2       0.090000        1.0080           0
    4264 QQQ  267  NMP  H5   HGA2       0.090000        1.0080           0
    4265 QQQ  267  NMP  C4   CG3C52    -0.233000       12.0110           0
    4266 QQQ  267  NMP  H6   HGA2       0.090000        1.0080           0
    4267 QQQ  267  NMP  H7   HGA2       0.090000        1.0080           0
    4268 QQQ  267  NMP  C5   CG3C52    -0.027000       12.0110           0
    4269 QQQ  267  NMP  H8   HGA2       0.090000        1.0080           0
    4270 QQQ  267  NMP  H9   HGA2       0.090000        1.0080           0
    4271 QQQ  267  NMP  C6   CG2R53     0.286000       12.0110           0
    4272 QQQ  267  NMP  O7   OG2D1     -0.500000       15.9990           0
    4273 QQQ  268  NMP  C1   CG331     -0.161000       12.0110           0
    4274 QQQ  268  NMP  H1   HGA3       0.090000        1.0080           0
    4275 QQQ  268  NMP  H2   HGA3       0.090000        1.0080           0
    4276 QQQ  268  NMP  H3   HGA3       0.090000        1.0080           0
    4277 QQQ  268  NMP  N2   NG2R53    -0.098000       14.0070           0
    4278 QQQ  268  NMP  C3   CG3C52    -0.077000       12.0110           0
    4279 QQQ  268  NMP  H4   HGA2       0.090000        1.0080           0
    4280 QQQ  268  NMP  H5   HGA2       0.090000        1.0080           0
    4281 QQQ  268  NMP  C4   CG3C52    -0.233000       12.0110           0
    4282 QQQ  268  NMP  H6   HGA2       0.090000        1.0080           0
    4283 QQQ  268  NMP  H7   HGA2       0.090000        1.0080           0
    4284 QQQ  268  NMP  C5   CG3C52    -0.027000       12.0110           0
    4285 QQQ  268  NMP  H8   HGA2       0.090000        1.0080           0
    4286 QQQ  268  NMP  H9   HGA2       0.090000        1.0080           0
    4287 QQQ  268  NMP  C6   CG2R53     0.286000       12.0110           0
    4288 QQQ  268  NMP  O7   OG2D1     -0.500000       15.9990           0
    4289 QQQ  269  NMP  C1   CG331     -0.161000       12.0110           0
    4290 QQQ  269  NMP  H1   HGA3       0.090000        1.0080           0
    4291 QQQ  269  NMP  H2   HGA3       0.090000        1.0080           0
    4292 QQQ  269  NMP  H3   HGA3       0.090000        1.0080           0
    4293 QQQ  269  NMP  N2   NG2R53    -0.098000       14.0070           0
    4294 QQQ  269  NMP  C3   CG3C52    -0.077000       12.0110           0
    4295 QQQ  269  NMP  H4   HGA2       0.090000        1.0080           0
    4296 QQQ  269  NMP  H5   HGA2       0.090000        1.0080           0
    4297 QQQ  269  NMP  C4   CG3C52    -0.233000       12.0110           0
    4298 QQQ  269  NMP  H6   HGA2       0.090000        1.0080           0
    4299 QQQ  269  NMP  H7   HGA2       0.090000        1.0080           0
    4300 QQQ  269  NMP  C5   CG3C52    -0.027000       12.0110           0
    4301 QQQ  269  NMP  H8   HGA2       0.090000        1.0080           0
    4302 QQQ  269  NMP  H9   HGA2       0.090000        1.0080           0
    4303 QQQ  269  NMP  C6   CG2R53     0.286000       12.0110           0
    4304 QQQ  269  NMP  O7   OG2D1     -0.500000       15.9990           0
    4305 QQQ  270  NMP  C1   CG331     -0.161000       12.0110           0
    4306 QQQ  270  NMP  H1   HGA3       0.090000        1.0080           0
    4307 QQQ  270  NMP  H2   HGA3       0.090000        1.0080           0
    4308 QQQ  270  NMP  H3   HGA3       0.090000        1.0080           0
    4309 QQQ  270  NMP  N2   NG2R53    -0.098000       14.0070           0
    4310 QQQ  270  NMP  C3   CG3C52    -0.077000       12.0110           0
    4311 QQQ  270  NMP  H4   HGA2       0.090000        1.0080           0
    4312 QQQ  270  NMP  H5   HGA2       0.090000        1.0080           0
    4313 QQQ  270  NMP  C4   CG3C52    -0.233000       12.0110           0
    4314 QQQ  270  NMP  H6   HGA2       0.090000        1.0080           0
    4315 QQQ  270  NMP  H7   HGA2       0.090000        1.0080           0
    4316 QQQ  270  NMP  C5   CG3C52    -0.027000       12.0110           0
    4317 QQQ  270  NMP  H8   HGA2       0.090000        1.0080           0
    4318 QQQ  270  NMP  H9   HGA2       0.090000        1.0080           0
    4319 QQQ  270  NMP  C6   CG2R53     0.286000       12.0110           0
    4320 QQQ  270  NMP  O7   OG2D1     -0.500000       15.9990           0
    4321 QQQ  271  NMP  C1   CG331     -0.161000       12.0110           0
    4322 QQQ  271  NMP  H1   HGA3       0.090000        1.0080           0
    4323 QQQ  271  NMP  H2   HGA3       0.090000        1.0080           0
    4324 QQQ  271  NMP  H3   HGA3       0.090000        1.0080           0
    4325 QQQ  271  NMP  N2   NG2R53    -0.098000       14.0070           0
    4326 QQQ  271  NMP  C3   CG3C52    -0.077000       12.0110           0
    4327 QQQ  271  NMP  H4   HGA2       0.090000        1.0080           0
    4328 QQQ  271  NMP  H5   HGA2       0.090000        1.0080           0
    4329 QQQ  271  NMP  C4   CG3C52    -0.233000       12.0110           0
    4330 QQQ  271  NMP  H6   HGA2       0.090000        1.0080           0
    4331 QQQ  271  NMP  H7   HGA2       0.090000        1.0080           0
    4332 QQQ  271  NMP  C5   CG3C52    -0.027000       12.0110           0
    4333 QQQ  271  NMP  H8   HGA2       0.090000        1.0080           0
    4334 QQQ  271  NMP  H9   HGA2       0.090000        1.0080           0
    4335 QQQ  271  NMP  C6   CG2R53     0.286000       12.0110           0
    4336 QQQ  271  NMP  O7   OG2D1     -0.500000       15.9990           0
    4337 QQQ  272  NMP  C1   CG331     -0.161000       12.0110           0
    4338 QQQ  272  NMP  H1   HGA3       0.090000        1.0080           0
    4339 QQQ  272  NMP  H2   HGA3       0.090000        1.0080           0
    4340 QQQ  272  NMP  H3   HGA3       0.090000        1.0080           0
    4341 QQQ  272  NMP  N2   NG2R53    -0.098000       14.0070           0
    4342 QQQ  272  NMP  C3   CG3C52    -0.077000       12.0110           0
    4343 QQQ  272  NMP  H4   HGA2       0.090000        1.0080           0
    4344 QQQ  272  NMP  H5   HGA2       0.090000        1.0080           0
    4345 QQQ  272  NMP  C4   CG3C52    -0.233000       12.0110           0
    4346 QQQ  272  NMP  H6   HGA2       0.090000        1.0080           0
    4347 QQQ  272  NMP  H7   HGA2       0.090000        1.0080           0
    4348 QQQ  272  NMP  C5   CG3C52    -0.027000       12.0110           0
    4349 QQQ  272  NMP  H8   HGA2       0.090000        1.0080           0
    4350 QQQ  272  NMP  H9   HGA2       0.090000        1.0080           0
    4351 QQQ  272  NMP  C6   CG2R53     0.286000       12.0110           0
    4352 QQQ  272  NMP  O7   OG2D1     -0.500000       15.9990           0
    4353 QQQ  273  NMP  C1   CG331     -0.161000       12.0110           0
    4354 QQQ  273  NMP  H1   HGA3       0.090000        1.0080           0
    4355 QQQ  273  NMP  H2   HGA3       0.090000        1.0080           0
    4356 QQQ  273  NMP  H3   HGA3       0.090000        1.0080           0
    4357 QQQ  273  NMP  N2   NG2R53    -0.098000       14.0070           0
    4358 QQQ  273  NMP  C3   CG3C52    -0.077000       12.0110           0
    4359 QQQ  273  NMP  H4   HGA2       0.090000        1.0080           0
    4360 QQQ  273  NMP  H5   HGA2       0.090000        1.0080           0
    4361 QQQ  273  NMP  C4   CG3C52    -0.233000       12.0110           0
    4362 QQQ  273  NMP  H6   HGA2       0.090000        1.0080           0
    4363 QQQ  273  NMP  H7   HGA2       0.090000        1.0080           0
    4364 QQQ  273  NMP  C5   CG3C52    -0.027000       12.0110           0
    4365 QQQ  273  NMP  H8   HGA2       0.090000        1.0080           0
    4366 QQQ  273  NMP  H9   HGA2       0.090000        1.0080           0
    4367 QQQ  273  NMP  C6   CG2R53     0.286000       12.0110           0
    4368 QQQ  273  NMP  O7   OG2D1     -0.500000       15.9990           0
    4369 QQQ  274  NMP  C1   CG331     -0.161000       12.0110           0
    4370 QQQ  274  NMP  H1   HGA3       0.090000        1.0080           0
    4371 QQQ  274  NMP  H2   HGA3       0.090000        1.0080           0
    4372 QQQ  274  NMP  H3   HGA3       0.090000        1.0080           0
    4373 QQQ  274  NMP  N2   NG2R53    -0.098000       14.0070           0
    4374 QQQ  274  NMP  C3   CG3C52    -0.077000       12.0110           0
    4375 QQQ  274  NMP  H4   HGA2       0.090000        1.0080           0
    4376 QQQ  274  NMP  H5   HGA2       0.090000        1.0080           0
    4377 QQQ  274  NMP  C4   CG3C52    -0.233000       12.0110           0
    4378 QQQ  274  NMP  H6   HGA2       0.090000        1.0080           0
    4379 QQQ  274  NMP  H7   HGA2       0.090000        1.0080           0
    4380 QQQ  274  NMP  C5   CG3C52    -0.027000       12.0110           0
    4381 QQQ  274  NMP  H8   HGA2       0.090000        1.0080           0
    4382 QQQ  274  NMP  H9   HGA2       0.090000        1.0080           0
    4383 QQQ  274  NMP  C6   CG2R53     0.286000       12.0110           0
    4384 QQQ  274  NMP  O7   OG2D1     -0.500000       15.9990           0
    4385 QQQ  275  NMP  C1   CG331     -0.161000       12.0110           0
    4386 QQQ  275  NMP  H1   HGA3       0.090000        1.0080           0
    4387 QQQ  275  NMP  H2   HGA3       0.090000        1.0080           0
    4388 QQQ  275  NMP  H3   HGA3       0.090000        1.0080           0
    4389 QQQ  275  NMP  N2   NG2R53    -0.098000       14.0070           0
    4390 QQQ  275  NMP  C3   CG3C52    -0.077000       12.0110           0
    4391 QQQ  275  NMP  H4   HGA2       0.090000        1.0080           0
    4392 QQQ  275  NMP  H5   HGA2       0.090000        1.0080           0
    4393 QQQ  275  NMP  C4   CG3C52    -0.233000       12.0110           0
    4394 QQQ  275  NMP  H6   HGA2       0.090000        1.0080           0
    4395 QQQ  275  NMP  H7   HGA2       0.090000        1.0080           0
    4396 QQQ  275  NMP  C5   CG3C52    -0.027000       12.0110           0
    4397 QQQ  275  NMP  H8   HGA2       0.090000        1.0080           0
    4398 QQQ  275  NMP  H9   HGA2       0.090000        1.0080           0
    4399 QQQ  275  NMP  C6   CG2R53     0.286000       12.0110           0
    4400 QQQ  275  NMP  O7   OG2D1     -0.500000       15.9990           0
    4401 QQQ  276  NMP  C1   CG331     -0.161000       12.0110           0
    4402 QQQ  276  NMP  H1   HGA3       0.090000        1.0080           0
    4403 QQQ  276  NMP  H2   HGA3       0.090000        1.0080           0
    4404 QQQ  276  NMP  H3   HGA3       0.090000        1.0080           0
    4405 QQQ  276  NMP  N2   NG2R53    -0.098000       14.0070           0
    4406 QQQ  276  NMP  C3   CG3C52    -0.077000       12.0110           0
    4407 QQQ  276  NMP  H4   HGA2       0.090000        1.0080           0
    4408 QQQ  276  NMP  H5   HGA2       0.090000        1.0080           0
    4409 QQQ  276  NMP  C4   CG3C52    -0.233000       12.0110           0
    4410 QQQ  276  NMP  H6   HGA2       0.090000        1.0080           0
    4411 QQQ  276  NMP  H7   HGA2       0.090000        1.0080           0
    4412 QQQ  276  NMP  C5   CG3C52    -0.027000       12.0110           0
    4413 QQQ  276  NMP  H8   HGA2       0.090000        1.0080           0
    4414 QQQ  276  NMP  H9   HGA2       0.090000        1.0080           0
    4415 QQQ  276  NMP  C6   CG2R53     0.286000       12.0110           0
    4416 QQQ  276  NMP  O7   OG2D1     -0.500000       15.9990           0
    4417 QQQ  277  NMP  C1   CG331     -0.161000       12.0110           0
    4418 QQQ  277  NMP  H1   HGA3       0.090000        1.0080           0
    4419 QQQ  277  NMP  H2   HGA3       0.090000        1.0080           0
    4420 QQQ  277  NMP  H3   HGA3       0.090000        1.0080           0
    4421 QQQ  277  NMP  N2   NG2R53    -0.098000       14.0070           0
    4422 QQQ  277  NMP  C3   CG3C52    -0.077000       12.0110           0
    4423 QQQ  277  NMP  H4   HGA2       0.090000        1.0080           0
    4424 QQQ  277  NMP  H5   HGA2       0.090000        1.0080           0
    4425 QQQ  277  NMP  C4   CG3C52    -0.233000       12.0110           0
    4426 QQQ  277  NMP  H6   HGA2       0.090000        1.0080           0
    4427 QQQ  277  NMP  H7   HGA2       0.090000        1.0080           0
    4428 QQQ  277  NMP  C5   CG3C52    -0.027000       12.0110           0
    4429 QQQ  277  NMP  H8   HGA2       0.090000        1.0080           0
    4430 QQQ  277  NMP  H9   HGA2       0.090000        1.0080           0
    4431 QQQ  277  NMP  C6   CG2R53     0.286000       12.0110           0
    4432 QQQ  277  NMP  O7   OG2D1     -0.500000       15.9990           0
    4433 QQQ  278  NMP  C1   CG331     -0.161000       12.0110           0
    4434 QQQ  278  NMP  H1   HGA3       0.090000        1.0080           0
    4435 QQQ  278  NMP  H2   HGA3       0.090000        1.0080           0
    4436 QQQ  278  NMP  H3   HGA3       0.090000        1.0080           0
    4437 QQQ  278  NMP  N2   NG2R53    -0.098000       14.0070           0
    4438 QQQ  278  NMP  C3   CG3C52    -0.077000       12.0110           0
    4439 QQQ  278  NMP  H4   HGA2       0.090000        1.0080           0
    4440 QQQ  278  NMP  H5   HGA2       0.090000        1.0080           0
    4441 QQQ  278  NMP  C4   CG3C52    -0.233000       12.0110           0
    4442 QQQ  278  NMP  H6   HGA2       0.090000        1.0080           0
    4443 QQQ  278  NMP  H7   HGA2       0.090000        1.0080           0
    4444 QQQ  278  NMP  C5   CG3C52    -0.027000       12.0110           0
    4445 QQQ  278  NMP  H8   HGA2       0.090000        1.0080           0
    4446 QQQ  278  NMP  H9   HGA2       0.090000        1.0080           0
    4447 QQQ  278  NMP  C6   CG2R53     0.286000       12.0110           0
    4448 QQQ  278  NMP  O7   OG2D1     -0.500000       15.9990           0
    4449 QQQ  279  NMP  C1   CG331     -0.161000       12.0110           0
    4450 QQQ  279  NMP  H1   HGA3       0.090000        1.0080           0
    4451 QQQ  279  NMP  H2   HGA3       0.090000        1.0080           0
    4452 QQQ  279  NMP  H3   HGA3       0.090000        1.0080           0
    4453 QQQ  279  NMP  N2   NG2R53    -0.098000       14.0070           0
    4454 QQQ  279  NMP  C3   CG3C52    -0.077000       12.0110           0
    4455 QQQ  279  NMP  H4   HGA2       0.090000        1.0080           0
    4456 QQQ  279  NMP  H5   HGA2       0.090000        1.0080           0
    4457 QQQ  279  NMP  C4   CG3C52    -0.233000       12.0110           0
    4458 QQQ  279  NMP  H6   HGA2       0.090000        1.0080           0
    4459 QQQ  279  NMP  H7   HGA2       0.090000        1.0080           0
    4460 QQQ  279  NMP  C5   CG3C52    -0.027000       12.0110           0
    4461 QQQ  279  NMP  H8   HGA2       0.090000        1.0080           0
    4462 QQQ  279  NMP  H9   HGA2       0.090000        1.0080           0
    4463 QQQ  279  NMP  C6   CG2R53     0.286000       12.0110           0
    4464 QQQ  279  NMP  O7   OG2D1     -0.500000       15.9990           0
    4465 QQQ  280  NMP  C1   CG331     -0.161000       12.0110           0
    4466 QQQ  280  NMP  H1   HGA3       0.090000        1.0080           0
    4467 QQQ  280  NMP  H2   HGA3       0.090000        1.0080           0
    4468 QQQ  280  NMP  H3   HGA3       0.090000        1.0080           0
    4469 QQQ  280  NMP  N2   NG2R53    -0.098000       14.0070           0
    4470 QQQ  280  NMP  C3   CG3C52    -0.077000       12.0110           0
    4471 QQQ  280  NMP  H4   HGA2       0.090000        1.0080           0
    4472 QQQ  280  NMP  H5   HGA2       0.090000        1.0080           0
    4473 QQQ  280  NMP  C4   CG3C52    -0.233000       12.0110           0
    4474 QQQ  280  NMP  H6   HGA2       0.090000        1.0080           0
    4475 QQQ  280  NMP  H7   HGA2       0.090000        1.0080           0
    4476 QQQ  280  NMP  C5   CG3C52    -0.027000       12.0110           0
    4477 QQQ  280  NMP  H8   HGA2       0.090000        1.0080           0
    4478 QQQ  280  NMP  H9   HGA2       0.090000        1.0080           0
    4479 QQQ  280  NMP  C6   CG2R53     0.286000       12.0110           0
    4480 QQQ  280  NMP  O7   OG2D1     -0.500000       15.9990           0
    4481 QQQ  281  NMP  C1   CG331     -0.161000       12.0110           0
    4482 QQQ  281  NMP  H1   HGA3       0.090000        1.0080           0
    4483 QQQ  281  NMP  H2   HGA3       0.090000        1.0080           0
    4484 QQQ  281  NMP  H3   HGA3       0.090000        1.0080           0
    4485 QQQ  281  NMP  N2   NG2R53    -0.098000       14.0070           0
    4486 QQQ  281  NMP  C3   CG3C52    -0.077000       12.0110           0
    4487 QQQ  281  NMP  H4   HGA2       0.090000        1.0080           0
    4488 QQQ  281  NMP  H5   HGA2       0.090000        1.0080           0
    4489 QQQ  281  NMP  C4   CG3C52    -0.233000       12.0110           0
    4490 QQQ  281  NMP  H6   HGA2       0.090000        1.0080           0
    4491 QQQ  281  NMP  H7   HGA2       0.090000        1.0080           0
    4492 QQQ  281  NMP  C5   CG3C52    -0.027000       12.0110           0
    4493 QQQ  281  NMP  H8   HGA2       0.090000        1.0080           0
    4494 QQQ  281  NMP  H9   HGA2       0.090000        1.0080           0
    4495 QQQ  281  NMP  C6   CG2R53     0.286000       12.0110           0
    4496 QQQ  281  NMP  O7   OG2D1     -0.500000       15.9990           0
    4497 QQQ  282  NMP  C1   CG331     -0.161000       12.0110           0
    4498 QQQ  282  NMP  H1   HGA3       0.090000        1.0080           0
    4499 QQQ  282  NMP  H2   HGA3       0.090000        1.0080           0
    4500 QQQ  282  NMP  H3   HGA3       0.090000        1.0080           0
    4501 QQQ  282  NMP  N2   NG2R53    -0.098000       14.0070           0
    4502 QQQ  282  NMP  C3   CG3C52    -0.077000       12.0110           0
    4503 QQQ  282  NMP  H4   HGA2       0.090000        1.0080           0
    4504 QQQ  282  NMP  H5   HGA2       0.090000        1.0080           0
    4505 QQQ  282  NMP  C4   CG3C52    -0.233000       12.0110           0
    4506 QQQ  282  NMP  H6   HGA2       0.090000        1.0080           0
    4507 QQQ  282  NMP  H7   HGA2       0.090000        1.0080           0
    4508 QQQ  282  NMP  C5   CG3C52    -0.027000       12.0110           0
    4509 QQQ  282  NMP  H8   HGA2       0.090000        1.0080           0
    4510 QQQ  282  NMP  H9   HGA2       0.090000        1.0080           0
    4511 QQQ  282  NMP  C6   CG2R53     0.286000       12.0110           0
    4512 QQQ  282  NMP  O7   OG2D1     -0.500000       15.9990           0
    4513 QQQ  283  NMP  C1   CG331     -0.161000       12.0110           0
    4514 QQQ  283  NMP  H1   HGA3       0.090000        1.0080           0
    4515 QQQ  283  NMP  H2   HGA3       0.090000        1.0080           0
    4516 QQQ  283  NMP  H3   HGA3       0.090000        1.0080           0
    4517 QQQ  283  NMP  N2   NG2R53    -0.098000       14.0070           0
    4518 QQQ  283  NMP  C3   CG3C52    -0.077000       12.0110           0
    4519 QQQ  283  NMP  H4   HGA2       0.090000        1.0080           0
    4520 QQQ  283  NMP  H5   HGA2       0.090000        1.0080           0
    4521 QQQ  283  NMP  C4   CG3C52    -0.233000       12.0110           0
    4522 QQQ  283  NMP  H6   HGA2       0.090000        1.0080           0
    4523 QQQ  283  NMP  H7   HGA2       0.090000        1.0080           0
    4524 QQQ  283  NMP  C5   CG3C52    -0.027000       12.0110           0
    4525 QQQ  283  NMP  H8   HGA2       0.090000        1.0080           0
    4526 QQQ  283  NMP  H9   HGA2       0.090000        1.0080           0
    4527 QQQ  283  NMP  C6   CG2R53     0.286000       12.0110           0
    4528 QQQ  283  NMP  O7   OG2D1     -0.500000       15.9990           0
    4529 QQQ  284  NMP  C1   CG331     -0.161000       12.0110           0
    4530 QQQ  284  NMP  H1   HGA3       0.090000        1.0080           0
    4531 QQQ  284  NMP  H2   HGA3       0.090000        1.0080           0
    4532 QQQ  284  NMP  H3   HGA3       0.090000        1.0080           0
    4533 QQQ  284  NMP  N2   NG2R53    -0.098000       14.0070           0
    4534 QQQ  284  NMP  C3   CG3C52    -0.077000       12.0110           0
    4535 QQQ  284  NMP  H4   HGA2       0.090000        1.0080           0
    4536 QQQ  284  NMP  H5   HGA2       0.090000        1.0080           0
    4537 QQQ  284  NMP  C4   CG3C52    -0.233000       12.0110           0
    4538 QQQ  284  NMP  H6   HGA2       0.090000        1.0080           0
    4539 QQQ  284  NMP  H7   HGA2       0.090000        1.0080           0
    4540 QQQ  284  NMP  C5   CG3C52    -0.027000       12.0110           0
    4541 QQQ  284  NMP  H8   HGA2       0.090000        1.0080           0
    4542 QQQ  284  NMP  H9   HGA2       0.090000        1.0080           0
    4543 QQQ  284  NMP  C6   CG2R53     0.286000       12.0110           0
    4544 QQQ  284  NMP  O7   OG2D1     -0.500000       15.9990           0
    4545 QQQ  285  NMP  C1   CG331     -0.161000       12.0110           0
    4546 QQQ  285  NMP  H1   HGA3       0.090000        1.0080           0
    4547 QQQ  285  NMP  H2   HGA3       0.090000        1.0080           0
    4548 QQQ  285  NMP  H3   HGA3       0.090000        1.0080           0
    4549 QQQ  285  NMP  N2   NG2R53    -0.098000       14.0070           0
    4550 QQQ  285  NMP  C3   CG3C52    -0.077000       12.0110           0
    4551 QQQ  285  NMP  H4   HGA2       0.090000        1.0080           0
    4552 QQQ  285  NMP  H5   HGA2       0.090000        1.0080           0
    4553 QQQ  285  NMP  C4   CG3C52    -0.233000       12.0110           0
    4554 QQQ  285  NMP  H6   HGA2       0.090000        1.0080           0
    4555 QQQ  285  NMP  H7   HGA2       0.090000        1.0080           0
    4556 QQQ  285  NMP  C5   CG3C52    -0.027000       12.0110           0
    4557 QQQ  285  NMP  H8   HGA2       0.090000        1.0080           0
    4558 QQQ  285  NMP  H9   HGA2       0.090000        1.0080           0
    4559 QQQ  285  NMP  C6   CG2R53     0.286000       12.0110           0
    4560 QQQ  285  NMP  O7   OG2D1     -0.500000       15.9990           0
    4561 QQQ  286  NMP  C1   CG331     -0.161000       12.0110           0
    4562 QQQ  286  NMP  H1   HGA3       0.090000        1.0080           0
    4563 QQQ  286  NMP  H2   HGA3       0.090000        1.0080           0
    4564 QQQ  286  NMP  H3   HGA3       0.090000        1.0080           0
    4565 QQQ  286  NMP  N2   NG2R53    -0.098000       14.0070           0
    4566 QQQ  286  NMP  C3   CG3C52    -0.077000       12.0110           0
    4567 QQQ  286  NMP  H4   HGA2       0.090000        1.0080           0
    4568 QQQ  286  NMP  H5   HGA2       0.090000        1.0080           0
    4569 QQQ  286  NMP  C4   CG3C52    -0.233000       12.0110           0
    4570 QQQ  286  NMP  H6   HGA2       0.090000        1.0080           0
    4571 QQQ  286  NMP  H7   HGA2       0.090000        1.0080           0
    4572 QQQ  286  NMP  C5   CG3C52    -0.027000       12.0110           0
    4573 QQQ  286  NMP  H8   HGA2       0.090000        1.0080           0
    4574 QQQ  286  NMP  H9   HGA2       0.090000        1.0080           0
    4575 QQQ  286  NMP  C6   CG2R53     0.286000       12.0110           0
    4576 QQQ  286  NMP  O7   OG2D1     -0.500000       15.9990           0
    4577 QQQ  287  NMP  C1   CG331     -0.161000       12.0110           0
    4578 QQQ  287  NMP  H1   HGA3       0.090000        1.0080           0
    4579 QQQ  287  NMP  H2   HGA3       0.090000        1.0080           0
    4580 QQQ  287  NMP  H3   HGA3       0.090000        1.0080           0
    4581 QQQ  287  NMP  N2   NG2R53    -0.098000       14.0070           0
    4582 QQQ  287  NMP  C3   CG3C52    -0.077000       12.0110           0
    4583 QQQ  287  NMP  H4   HGA2       0.090000        1.0080           0
    4584 QQQ  287  NMP  H5   HGA2       0.090000        1.0080           0
    4585 QQQ  287  NMP  C4   CG3C52    -0.233000       12.0110           0
    4586 QQQ  287  NMP  H6   HGA2       0.090000        1.0080           0
    4587 QQQ  287  NMP  H7   HGA2       0.090000        1.0080           0
    4588 QQQ  287  NMP  C5   CG3C52    -0.027000       12.0110           0
    4589 QQQ  287  NMP  H8   HGA2       0.090000        1.0080           0
    4590 QQQ  287  NMP  H9   HGA2       0.090000        1.0080           0
    4591 QQQ  287  NMP  C6   CG2R53     0.286000       12.0110           0
    4592 QQQ  287  NMP  O7   OG2D1     -0.500000       15.9990           0
    4593 QQQ  288  NMP  C1   CG331     -0.161000       12.0110           0
    4594 QQQ  288  NMP  H1   HGA3       0.090000        1.0080           0
    4595 QQQ  288  NMP  H2   HGA3       0.090000        1.0080           0
    4596 QQQ  288  NMP  H3   HGA3       0.090000        1.0080           0
    4597 QQQ  288  NMP  N2   NG2R53    -0.098000       14.0070           0
    4598 QQQ  288  NMP  C3   CG3C52    -0.077000       12.0110           0
    4599 QQQ  288  NMP  H4   HGA2       0.090000        1.0080           0
    4600 QQQ  288  NMP  H5   HGA2       0.090000        1.0080           0
    4601 QQQ  288  NMP  C4   CG3C52    -0.233000       12.0110           0
    4602 QQQ  288  NMP  H6   HGA2       0.090000        1.0080           0
    4603 QQQ  288  NMP  H7   HGA2       0.090000        1.0080           0
    4604 QQQ  288  NMP  C5   CG3C52    -0.027000       12.0110           0
    4605 QQQ  288  NMP  H8   HGA2       0.090000        1.0080           0
    4606 QQQ  288  NMP  H9   HGA2       0.090000        1.0080           0
    4607 QQQ  288  NMP  C6   CG2R53     0.286000       12.0110           0
    4608 QQQ  288  NMP  O7   OG2D1     -0.500000       15.9990           0
    4609 QQQ  289  NMP  C1   CG331     -0.161000       12.0110           0
    4610 QQQ  289  NMP  H1   HGA3       0.090000        1.0080           0
    4611 QQQ  289  NMP  H2   HGA3       0.090000        1.0080           0
    4612 QQQ  289  NMP  H3   HGA3       0.090000        1.0080           0
    4613 QQQ  289  NMP  N2   NG2R53    -0.098000       14.0070           0
    4614 QQQ  289  NMP  C3   CG3C52    -0.077000       12.0110           0
    4615 QQQ  289  NMP  H4   HGA2       0.090000        1.0080           0
    4616 QQQ  289  NMP  H5   HGA2       0.090000        1.0080           0
    4617 QQQ  289  NMP  C4   CG3C52    -0.233000       12.0110           0
    4618 QQQ  289  NMP  H6   HGA2       0.090000        1.0080           0
    4619 QQQ  289  NMP  H7   HGA2       0.090000        1.0080           0
    4620 QQQ  289  NMP  C5   CG3C52    -0.027000       12.0110           0
    4621 QQQ  289  NMP  H8   HGA2       0.090000        1.0080           0
    4622 QQQ  289  NMP  H9   HGA2       0.090000        1.0080           0
    4623 QQQ  289  NMP  C6   CG2R53     0.286000       12.0110           0
    4624 QQQ  289  NMP  O7   OG2D1     -0.500000       15.9990           0
    4625 QQQ  290  NMP  C1   CG331     -0.161000       12.0110           0
    4626 QQQ  290  NMP  H1   HGA3       0.090000        1.0080           0
    4627 QQQ  290  NMP  H2   HGA3       0.090000        1.0080           0
    4628 QQQ  290  NMP  H3   HGA3       0.090000        1.0080           0
    4629 QQQ  290  NMP  N2   NG2R53    -0.098000       14.0070           0
    4630 QQQ  290  NMP  C3   CG3C52    -0.077000       12.0110           0
    4631 QQQ  290  NMP  H4   HGA2       0.090000        1.0080           0
    4632 QQQ  290  NMP  H5   HGA2       0.090000        1.0080           0
    4633 QQQ  290  NMP  C4   CG3C52    -0.233000       12.0110           0
    4634 QQQ  290  NMP  H6   HGA2       0.090000        1.0080           0
    4635 QQQ  290  NMP  H7   HGA2       0.090000        1.0080           0
    4636 QQQ  290  NMP  C5   CG3C52    -0.027000       12.0110           0
    4637 QQQ  290  NMP  H8   HGA2       0.090000        1.0080           0
    4638 QQQ  290  NMP  H9   HGA2       0.090000        1.0080           0
    4639 QQQ  290  NMP  C6   CG2R53     0.286000       12.0110           0
    4640 QQQ  290  NMP  O7   OG2D1     -0.500000       15.9990           0
    4641 QQQ  291  NMP  C1   CG331     -0.161000       12.0110           0
    4642 QQQ  291  NMP  H1   HGA3       0.090000        1.0080           0
    4643 QQQ  291  NMP  H2   HGA3       0.090000        1.0080           0
    4644 QQQ  291  NMP  H3   HGA3       0.090000        1.0080           0
    4645 QQQ  291  NMP  N2   NG2R53    -0.098000       14.0070           0
    4646 QQQ  291  NMP  C3   CG3C52    -0.077000       12.0110           0
    4647 QQQ  291  NMP  H4   HGA2       0.090000        1.0080           0
    4648 QQQ  291  NMP  H5   HGA2       0.090000        1.0080           0
    4649 QQQ  291  NMP  C4   CG3C52    -0.233000       12.0110           0
    4650 QQQ  291  NMP  H6   HGA2       0.090000        1.0080           0
    4651 QQQ  291  NMP  H7   HGA2       0.090000        1.0080           0
    4652 QQQ  291  NMP  C5   CG3C52    -0.027000       12.0110           0
    4653 QQQ  291  NMP  H8   HGA2       0.090000        1.0080           0
    4654 QQQ  291  NMP  H9   HGA2       0.090000        1.0080           0
    4655 QQQ  291  NMP  C6   CG2R53     0.286000       12.0110           0
    4656 QQQ  291  NMP  O7   OG2D1     -0.500000       15.9990           0
    4657 QQQ  292  NMP  C1   CG331     -0.161000       12.0110           0
    4658 QQQ  292  NMP  H1   HGA3       0.090000        1.0080           0
    4659 QQQ  292  NMP  H2   HGA3       0.090000        1.0080           0
    4660 QQQ  292  NMP  H3   HGA3       0.090000        1.0080           0
    4661 QQQ  292  NMP  N2   NG2R53    -0.098000       14.0070           0
    4662 QQQ  292  NMP  C3   CG3C52    -0.077000       12.0110           0
    4663 QQQ  292  NMP  H4   HGA2       0.090000        1.0080           0
    4664 QQQ  292  NMP  H5   HGA2       0.090000        1.0080           0
    4665 QQQ  292  NMP  C4   CG3C52    -0.233000       12.0110           0
    4666 QQQ  292  NMP  H6   HGA2       0.090000        1.0080           0
    4667 QQQ  292  NMP  H7   HGA2       0.090000        1.0080           0
    4668 QQQ  292  NMP  C5   CG3C52    -0.027000       12.0110           0
    4669 QQQ  292  NMP  H8   HGA2       0.090000        1.0080           0
    4670 QQQ  292  NMP  H9   HGA2       0.090000        1.0080           0
    4671 QQQ  292  NMP  C6   CG2R53     0.286000       12.0110           0
    4672 QQQ  292  NMP  O7   OG2D1     -0.500000       15.9990           0
    4673 QQQ  293  NMP  C1   CG331     -0.161000       12.0110           0
    4674 QQQ  293  NMP  H1   HGA3       0.090000        1.0080           0
    4675 QQQ  293  NMP  H2   HGA3       0.090000        1.0080           0
    4676 QQQ  293  NMP  H3   HGA3       0.090000        1.0080           0
    4677 QQQ  293  NMP  N2   NG2R53    -0.098000       14.0070           0
    4678 QQQ  293  NMP  C3   CG3C52    -0.077000       12.0110           0
    4679 QQQ  293  NMP  H4   HGA2       0.090000        1.0080           0
    4680 QQQ  293  NMP  H5   HGA2       0.090000        1.0080           0
    4681 QQQ  293  NMP  C4   CG3C52    -0.233000       12.0110           0
    4682 QQQ  293  NMP  H6   HGA2       0.090000        1.0080           0
    4683 QQQ  293  NMP  H7   HGA2       0.090000        1.0080           0
    4684 QQQ  293  NMP  C5   CG3C52    -0.027000       12.0110           0
    4685 QQQ  293  NMP  H8   HGA2       0.090000        1.0080           0
    4686 QQQ  293  NMP  H9   HGA2       0.090000        1.0080           0
    4687 QQQ  293  NMP  C6   CG2R53     0.286000       12.0110           0
    4688 QQQ  293  NMP  O7   OG2D1     -0.500000       15.9990           0
    4689 QQQ  294  NMP  C1   CG331     -0.161000       12.0110           0
    4690 QQQ  294  NMP  H1   HGA3       0.090000        1.0080           0
    4691 QQQ  294  NMP  H2   HGA3       0.090000        1.0080           0
    4692 QQQ  294  NMP  H3   HGA3       0.090000        1.0080           0
    4693 QQQ  294  NMP  N2   NG2R53    -0.098000       14.0070           0
    4694 QQQ  294  NMP  C3   CG3C52    -0.077000       12.0110           0
    4695 QQQ  294  NMP  H4   HGA2       0.090000        1.0080           0
    4696 QQQ  294  NMP  H5   HGA2       0.090000        1.0080           0
    4697 QQQ  294  NMP  C4   CG3C52    -0.233000       12.0110           0
    4698 QQQ  294  NMP  H6   HGA2       0.090000        1.0080           0
    4699 QQQ  294  NMP  H7   HGA2       0.090000        1.0080           0
    4700 QQQ  294  NMP  C5   CG3C52    -0.027000       12.0110           0
    4701 QQQ  294  NMP  H8   HGA2       0.090000        1.0080           0
    4702 QQQ  294  NMP  H9   HGA2       0.090000        1.0080           0
    4703 QQQ  294  NMP  C6   CG2R53     0.286000       12.0110           0
    4704 QQQ  294  NMP  O7   OG2D1     -0.500000       15.9990           0
    4705 QQQ  295  NMP  C1   CG331     -0.161000       12.0110           0
    4706 QQQ  295  NMP  H1   HGA3       0.090000        1.0080           0
    4707 QQQ  295  NMP  H2   HGA3       0.090000        1.0080           0
    4708 QQQ  295  NMP  H3   HGA3       0.090000        1.0080           0
    4709 QQQ  295  NMP  N2   NG2R53    -0.098000       14.0070           0
    4710 QQQ  295  NMP  C3   CG3C52    -0.077000       12.0110           0
    4711 QQQ  295  NMP  H4   HGA2       0.090000        1.0080           0
    4712 QQQ  295  NMP  H5   HGA2       0.090000        1.0080           0
    4713 QQQ  295  NMP  C4   CG3C52    -0.233000       12.0110           0
    4714 QQQ  295  NMP  H6   HGA2       0.090000        1.0080           0
    4715 QQQ  295  NMP  H7   HGA2       0.090000        1.0080           0
    4716 QQQ  295  NMP  C5   CG3C52    -0.027000       12.0110           0
    4717 QQQ  295  NMP  H8   HGA2       0.090000        1.0080           0
    4718 QQQ  295  NMP  H9   HGA2       0.090000        1.0080           0
    4719 QQQ  295  NMP  C6   CG2R53     0.286000       12.0110           0
    4720 QQQ  295  NMP  O7   OG2D1     -0.500000       15.9990           0
    4721 QQQ  296  NMP  C1   CG331     -0.161000       12.0110           0
    4722 QQQ  296  NMP  H1   HGA3       0.090000        1.0080           0
    4723 QQQ  296  NMP  H2   HGA3       0.090000        1.0080           0
    4724 QQQ  296  NMP  H3   HGA3       0.090000        1.0080           0
    4725 QQQ  296  NMP  N2   NG2R53    -0.098000       14.0070           0
    4726 QQQ  296  NMP  C3   CG3C52    -0.077000       12.0110           0
    4727 QQQ  296  NMP  H4   HGA2       0.090000        1.0080           0
    4728 QQQ  296  NMP  H5   HGA2       0.090000        1.0080           0
    4729 QQQ  296  NMP  C4   CG3C52    -0.233000       12.0110           0
    4730 QQQ  296  NMP  H6   HGA2       0.090000        1.0080           0
    4731 QQQ  296  NMP  H7   HGA2       0.090000        1.0080           0
    4732 QQQ  296  NMP  C5   CG3C52    -0.027000       12.0110           0
    4733 QQQ  296  NMP  H8   HGA2       0.090000        1.0080           0
    4734 QQQ  296  NMP  H9   HGA2       0.090000        1.0080           0
    4735 QQQ  296  NMP  C6   CG2R53     0.286000       12.0110           0
    4736 QQQ  296  NMP  O7   OG2D1     -0.500000       15.9990           0
    4737 QQQ  297  NMP  C1   CG331     -0.161000       12.0110           0
    4738 QQQ  297  NMP  H1   HGA3       0.090000        1.0080           0
    4739 QQQ  297  NMP  H2   HGA3       0.090000        1.0080           0
    4740 QQQ  297  NMP  H3   HGA3       0.090000        1.0080           0
    4741 QQQ  297  NMP  N2   NG2R53    -0.098000       14.0070           0
    4742 QQQ  297  NMP  C3   CG3C52    -0.077000       12.0110           0
    4743 QQQ  297  NMP  H4   HGA2       0.090000        1.0080           0
    4744 QQQ  297  NMP  H5   HGA2       0.090000        1.0080           0
    4745 QQQ  297  NMP  C4   CG3C52    -0.233000       12.0110           0
    4746 QQQ  297  NMP  H6   HGA2       0.090000        1.0080           0
    4747 QQQ  297  NMP  H7   HGA2       0.090000        1.0080           0
    4748 QQQ  297  NMP  C5   CG3C52    -0.027000       12.0110           0
    4749 QQQ  297  NMP  H8   HGA2       0.090000        1.0080           0
    4750 QQQ  297  NMP  H9   HGA2       0.090000        1.0080           0
    4751 QQQ  297  NMP  C6   CG2R53     0.286000       12.0110           0
    4752 QQQ  297  NMP  O7   OG2D1     -0.500000       15.9990           0
    4753 QQQ  298  NMP  C1   CG331     -0.161000       12.0110           0
    4754 QQQ  298  NMP  H1   HGA3       0.090000        1.0080           0
    4755 QQQ  298  NMP  H2   HGA3       0.090000        1.0080           0
    4756 QQQ  298  NMP  H3   HGA3       0.090000        1.0080           0
    4757 QQQ  298  NMP  N2   NG2R53    -0.098000       14.0070           0
    4758 QQQ  298  NMP  C3   CG3C52    -0.077000       12.0110           0
    4759 QQQ  298  NMP  H4   HGA2       0.090000        1.0080           0
    4760 QQQ  298  NMP  H5   HGA2       0.090000        1.0080           0
    4761 QQQ  298  NMP  C4   CG3C52    -0.233000       12.0110           0
    4762 QQQ  298  NMP  H6   HGA2       0.090000        1.0080           0
    4763 QQQ  298  NMP  H7   HGA2       0.090000        1.0080           0
    4764 QQQ  298  NMP  C5   CG3C52    -0.027000       12.0110           0
    4765 QQQ  298  NMP  H8   HGA2       0.090000        1.0080           0
    4766 QQQ  298  NMP  H9   HGA2       0.090000        1.0080           0
    4767 QQQ  298  NMP  C6   CG2R53     0.286000       12.0110           0
    4768 QQQ  298  NMP  O7   OG2D1     -0.500000       15.9990           0
    4769 QQQ  299  NMP  C1   CG331     -0.161000       12.0110           0
    4770 QQQ  299  NMP  H1   HGA3       0.090000        1.0080           0
    4771 QQQ  299  NMP  H2   HGA3       0.090000        1.0080           0
    4772 QQQ  299  NMP  H3   HGA3       0.090000        1.0080           0
    4773 QQQ  299  NMP  N2   NG2R53    -0.098000       14.0070           0
    4774 QQQ  299  NMP  C3   CG3C52    -0.077000       12.0110           0
    4775 QQQ  299  NMP  H4   HGA2       0.090000        1.0080           0
    4776 QQQ  299  NMP  H5   HGA2       0.090000        1.0080           0
    4777 QQQ  299  NMP  C4   CG3C52    -0.233000       12.0110           0
    4778 QQQ  299  NMP  H6   HGA2       0.090000        1.0080           0
    4779 QQQ  299  NMP  H7   HGA2       0.090000        1.0080           0
    4780 QQQ  299  NMP  C5   CG3C52    -0.027000       12.0110           0
    4781 QQQ  299  NMP  H8   HGA2       0.090000        1.0080           0
    4782 QQQ  299  NMP  H9   HGA2       0.090000        1.0080           0
    4783 QQQ  299  NMP  C6   CG2R53     0.286000       12.0110           0
    4784 QQQ  299  NMP  O7   OG2D1     -0.500000       15.9990           0
    4785 QQQ  300  NMP  C1   CG331     -0.161000       12.0110           0
    4786 QQQ  300  NMP  H1   HGA3       0.090000        1.0080           0
    4787 QQQ  300  NMP  H2   HGA3       0.090000        1.0080           0
    4788 QQQ  300  NMP  H3   HGA3       0.090000        1.0080           0
    4789 QQQ  300  NMP  N2   NG2R53    -0.098000       14.0070           0
    4790 QQQ  300  NMP  C3   CG3C52    -0.077000       12.0110           0
    4791 QQQ  300  NMP  H4   HGA2       0.090000        1.0080           0
    4792 QQQ  300  NMP  H5   HGA2       0.090000        1.0080           0
    4793 QQQ  300  NMP  C4   CG3C52    -0.233000       12.0110           0
    4794 QQQ  300  NMP  H6   HGA2       0.090000        1.0080           0
    4795 QQQ  300  NMP  H7   HGA2       0.090000        1.0080           0
    4796 QQQ  300  NMP  C5   CG3C52    -0.027000       12.0110           0
    4797 QQQ  300  NMP  H8   HGA2       0.090000        1.0080           0
    4798 QQQ  300  NMP  H9   HGA2       0.090000        1.0080           0
    4799 QQQ  300  NMP  C6   CG2R53     0.286000       12.0110           0
    4800 QQQ  300  NMP  O7   OG2D1     -0.500000       15.9990           0
    4801 QQQ  301  NMP  C1   CG331     -0.161000       12.0110           0
    4802 QQQ  301  NMP  H1   HGA3       0.090000        1.0080           0
    4803 QQQ  301  NMP  H2   HGA3       0.090000        1.0080           0
    4804 QQQ  301  NMP  H3   HGA3       0.090000        1.0080           0
    4805 QQQ  301  NMP  N2   NG2R53    -0.098000       14.0070           0
    4806 QQQ  301  NMP  C3   CG3C52    -0.077000       12.0110           0
    4807 QQQ  301  NMP  H4   HGA2       0.090000        1.0080           0
    4808 QQQ  301  NMP  H5   HGA2       0.090000        1.0080           0
    4809 QQQ  301  NMP  C4   CG3C52    -0.233000       12.0110           0
    4810 QQQ  301  NMP  H6   HGA2       0.090000        1.0080           0
    4811 QQQ  301  NMP  H7   HGA2       0.090000        1.0080           0
    4812 QQQ  301  NMP  C5   CG3C52    -0.027000       12.0110           0
    4813 QQQ  301  NMP  H8   HGA2       0.090000        1.0080           0
    4814 QQQ  301  NMP  H9   HGA2       0.090000        1.0080           0
    4815 QQQ  301  NMP  C6   CG2R53     0.286000       12.0110           0
    4816 QQQ  301  NMP  O7   OG2D1     -0.500000       15.9990           0
    4817 QQQ  302  NMP  C1   CG331     -0.161000       12.0110           0
    4818 QQQ  302  NMP  H1   HGA3       0.090000        1.0080           0
    4819 QQQ  302  NMP  H2   HGA3       0.090000        1.0080           0
    4820 QQQ  302  NMP  H3   HGA3       0.090000        1.0080           0
    4821 QQQ  302  NMP  N2   NG2R53    -0.098000       14.0070           0
    4822 QQQ  302  NMP  C3   CG3C52    -0.077000       12.0110           0
    4823 QQQ  302  NMP  H4   HGA2       0.090000        1.0080           0
    4824 QQQ  302  NMP  H5   HGA2       0.090000        1.0080           0
    4825 QQQ  302  NMP  C4   CG3C52    -0.233000       12.0110           0
    4826 QQQ  302  NMP  H6   HGA2       0.090000        1.0080           0
    4827 QQQ  302  NMP  H7   HGA2       0.090000        1.0080           0
    4828 QQQ  302  NMP  C5   CG3C52    -0.027000       12.0110           0
    4829 QQQ  302  NMP  H8   HGA2       0.090000        1.0080           0
    4830 QQQ  302  NMP  H9   HGA2       0.090000        1.0080           0
    4831 QQQ  302  NMP  C6   CG2R53     0.286000       12.0110           0
    4832 QQQ  302  NMP  O7   OG2D1     -0.500000       15.9990           0
    4833 QQQ  303  NMP  C1   CG331     -0.161000       12.0110           0
    4834 QQQ  303  NMP  H1   HGA3       0.090000        1.0080           0
    4835 QQQ  303  NMP  H2   HGA3       0.090000        1.0080           0
    4836 QQQ  303  NMP  H3   HGA3       0.090000        1.0080           0
    4837 QQQ  303  NMP  N2   NG2R53    -0.098000       14.0070           0
    4838 QQQ  303  NMP  C3   CG3C52    -0.077000       12.0110           0
    4839 QQQ  303  NMP  H4   HGA2       0.090000        1.0080           0
    4840 QQQ  303  NMP  H5   HGA2       0.090000        1.0080           0
    4841 QQQ  303  NMP  C4   CG3C52    -0.233000       12.0110           0
    4842 QQQ  303  NMP  H6   HGA2       0.090000        1.0080           0
    4843 QQQ  303  NMP  H7   HGA2       0.090000        1.0080           0
    4844 QQQ  303  NMP  C5   CG3C52    -0.027000       12.0110           0
    4845 QQQ  303  NMP  H8   HGA2       0.090000        1.0080           0
    4846 QQQ  303  NMP  H9   HGA2       0.090000        1.0080           0
    4847 QQQ  303  NMP  C6   CG2R53     0.286000       12.0110           0
    4848 QQQ  303  NMP  O7   OG2D1     -0.500000       15.9990           0
    4849 QQQ  304  NMP  C1   CG331     -0.161000       12.0110           0
    4850 QQQ  304  NMP  H1   HGA3       0.090000        1.0080           0
    4851 QQQ  304  NMP  H2   HGA3       0.090000        1.0080           0
    4852 QQQ  304  NMP  H3   HGA3       0.090000        1.0080           0
    4853 QQQ  304  NMP  N2   NG2R53    -0.098000       14.0070           0
    4854 QQQ  304  NMP  C3   CG3C52    -0.077000       12.0110           0
    4855 QQQ  304  NMP  H4   HGA2       0.090000        1.0080           0
    4856 QQQ  304  NMP  H5   HGA2       0.090000        1.0080           0
    4857 QQQ  304  NMP  C4   CG3C52    -0.233000       12.0110           0
    4858 QQQ  304  NMP  H6   HGA2       0.090000        1.0080           0
    4859 QQQ  304  NMP  H7   HGA2       0.090000        1.0080           0
    4860 QQQ  304  NMP  C5   CG3C52    -0.027000       12.0110           0
    4861 QQQ  304  NMP  H8   HGA2       0.090000        1.0080           0
    4862 QQQ  304  NMP  H9   HGA2       0.090000        1.0080           0
    4863 QQQ  304  NMP  C6   CG2R53     0.286000       12.0110           0
    4864 QQQ  304  NMP  O7   OG2D1     -0.500000       15.9990           0
    4865 QQQ  305  NMP  C1   CG331     -0.161000       12.0110           0
    4866 QQQ  305  NMP  H1   HGA3       0.090000        1.0080           0
    4867 QQQ  305  NMP  H2   HGA3       0.090000        1.0080           0
    4868 QQQ  305  NMP  H3   HGA3       0.090000        1.0080           0
    4869 QQQ  305  NMP  N2   NG2R53    -0.098000       14.0070           0
    4870 QQQ  305  NMP  C3   CG3C52    -0.077000       12.0110           0
    4871 QQQ  305  NMP  H4   HGA2       0.090000        1.0080           0
    4872 QQQ  305  NMP  H5   HGA2       0.090000        1.0080           0
    4873 QQQ  305  NMP  C4   CG3C52    -0.233000       12.0110           0
    4874 QQQ  305  NMP  H6   HGA2       0.090000        1.0080           0
    4875 QQQ  305  NMP  H7   HGA2       0.090000        1.0080           0
    4876 QQQ  305  NMP  C5   CG3C52    -0.027000       12.0110           0
    4877 QQQ  305  NMP  H8   HGA2       0.090000        1.0080           0
    4878 QQQ  305  NMP  H9   HGA2       0.090000        1.0080           0
    4879 QQQ  305  NMP  C6   CG2R53     0.286000       12.0110           0
    4880 QQQ  305  NMP  O7   OG2D1     -0.500000       15.9990           0
    4881 QQQ  306  NMP  C1   CG331     -0.161000       12.0110           0
    4882 QQQ  306  NMP  H1   HGA3       0.090000        1.0080           0
    4883 QQQ  306  NMP  H2   HGA3       0.090000        1.0080           0
    4884 QQQ  306  NMP  H3   HGA3       0.090000        1.0080           0
    4885 QQQ  306  NMP  N2   NG2R53    -0.098000       14.0070           0
    4886 QQQ  306  NMP  C3   CG3C52    -0.077000       12.0110           0
    4887 QQQ  306  NMP  H4   HGA2       0.090000        1.0080           0
    4888 QQQ  306  NMP  H5   HGA2       0.090000        1.0080           0
    4889 QQQ  306  NMP  C4   CG3C52    -0.233000       12.0110           0
    4890 QQQ  306  NMP  H6   HGA2       0.090000        1.0080           0
    4891 QQQ  306  NMP  H7   HGA2       0.090000        1.0080           0
    4892 QQQ  306  NMP  C5   CG3C52    -0.027000       12.0110           0
    4893 QQQ  306  NMP  H8   HGA2       0.090000        1.0080           0
    4894 QQQ  306  NMP  H9   HGA2       0.090000        1.0080           0
    4895 QQQ  306  NMP  C6   CG2R53     0.286000       12.0110           0
    4896 QQQ  306  NMP  O7   OG2D1     -0.500000       15.9990           0
    4897 QQQ  307  NMP  C1   CG331     -0.161000       12.0110           0
    4898 QQQ  307  NMP  H1   HGA3       0.090000        1.0080           0
    4899 QQQ  307  NMP  H2   HGA3       0.090000        1.0080           0
    4900 QQQ  307  NMP  H3   HGA3       0.090000        1.0080           0
    4901 QQQ  307  NMP  N2   NG2R53    -0.098000       14.0070           0
    4902 QQQ  307  NMP  C3   CG3C52    -0.077000       12.0110           0
    4903 QQQ  307  NMP  H4   HGA2       0.090000        1.0080           0
    4904 QQQ  307  NMP  H5   HGA2       0.090000        1.0080           0
    4905 QQQ  307  NMP  C4   CG3C52    -0.233000       12.0110           0
    4906 QQQ  307  NMP  H6   HGA2       0.090000        1.0080           0
    4907 QQQ  307  NMP  H7   HGA2       0.090000        1.0080           0
    4908 QQQ  307  NMP  C5   CG3C52    -0.027000       12.0110           0
    4909 QQQ  307  NMP  H8   HGA2       0.090000        1.0080           0
    4910 QQQ  307  NMP  H9   HGA2       0.090000        1.0080           0
    4911 QQQ  307  NMP  C6   CG2R53     0.286000       12.0110           0
    4912 QQQ  307  NMP  O7   OG2D1     -0.500000       15.9990           0
    4913 QQQ  308  NMP  C1   CG331     -0.161000       12.0110           0
    4914 QQQ  308  NMP  H1   HGA3       0.090000        1.0080           0
    4915 QQQ  308  NMP  H2   HGA3       0.090000        1.0080           0
    4916 QQQ  308  NMP  H3   HGA3       0.090000        1.0080           0
    4917 QQQ  308  NMP  N2   NG2R53    -0.098000       14.0070           0
    4918 QQQ  308  NMP  C3   CG3C52    -0.077000       12.0110           0
    4919 QQQ  308  NMP  H4   HGA2       0.090000        1.0080           0
    4920 QQQ  308  NMP  H5   HGA2       0.090000        1.0080           0
    4921 QQQ  308  NMP  C4   CG3C52    -0.233000       12.0110           0
    4922 QQQ  308  NMP  H6   HGA2       0.090000        1.0080           0
    4923 QQQ  308  NMP  H7   HGA2       0.090000        1.0080           0
    4924 QQQ  308  NMP  C5   CG3C52    -0.027000       12.0110           0
    4925 QQQ  308  NMP  H8   HGA2       0.090000        1.0080           0
    4926 QQQ  308  NMP  H9   HGA2       0.090000        1.0080           0
    4927 QQQ  308  NMP  C6   CG2R53     0.286000       12.0110           0
    4928 QQQ  308  NMP  O7   OG2D1     -0.500000       15.9990           0
    4929 QQQ  309  NMP  C1   CG331     -0.161000       12.0110           0
    4930 QQQ  309  NMP  H1   HGA3       0.090000        1.0080           0
    4931 QQQ  309  NMP  H2   HGA3       0.090000        1.0080           0
    4932 QQQ  309  NMP  H3   HGA3       0.090000        1.0080           0
    4933 QQQ  309  NMP  N2   NG2R53    -0.098000       14.0070           0
    4934 QQQ  309  NMP  C3   CG3C52    -0.077000       12.0110           0
    4935 QQQ  309  NMP  H4   HGA2       0.090000        1.0080           0
    4936 QQQ  309  NMP  H5   HGA2       0.090000        1.0080           0
    4937 QQQ  309  NMP  C4   CG3C52    -0.233000       12.0110           0
    4938 QQQ  309  NMP  H6   HGA2       0.090000        1.0080           0
    4939 QQQ  309  NMP  H7   HGA2       0.090000        1.0080           0
    4940 QQQ  309  NMP  C5   CG3C52    -0.027000       12.0110           0
    4941 QQQ  309  NMP  H8   HGA2       0.090000        1.0080           0
    4942 QQQ  309  NMP  H9   HGA2       0.090000        1.0080           0
    4943 QQQ  309  NMP  C6   CG2R53     0.286000       12.0110           0
    4944 QQQ  309  NMP  O7   OG2D1     -0.500000       15.9990           0
    4945 QQQ  310  NMP  C1   CG331     -0.161000       12.0110           0
    4946 QQQ  310  NMP  H1   HGA3       0.090000        1.0080           0
    4947 QQQ  310  NMP  H2   HGA3       0.090000        1.0080           0
    4948 QQQ  310  NMP  H3   HGA3       0.090000        1.0080           0
    4949 QQQ  310  NMP  N2   NG2R53    -0.098000       14.0070           0
    4950 QQQ  310  NMP  C3   CG3C52    -0.077000       12.0110           0
    4951 QQQ  310  NMP  H4   HGA2       0.090000        1.0080           0
    4952 QQQ  310  NMP  H5   HGA2       0.090000        1.0080           0
    4953 QQQ  310  NMP  C4   CG3C52    -0.233000       12.0110           0
    4954 QQQ  310  NMP  H6   HGA2       0.090000        1.0080           0
    4955 QQQ  310  NMP  H7   HGA2       0.090000        1.0080           0
    4956 QQQ  310  NMP  C5   CG3C52    -0.027000       12.0110           0
    4957 QQQ  310  NMP  H8   HGA2       0.090000        1.0080           0
    4958 QQQ  310  NMP  H9   HGA2       0.090000        1.0080           0
    4959 QQQ  310  NMP  C6   CG2R53     0.286000       12.0110           0
    4960 QQQ  310  NMP  O7   OG2D1     -0.500000       15.9990           0
    4961 QQQ  311  NMP  C1   CG331     -0.161000       12.0110           0
    4962 QQQ  311  NMP  H1   HGA3       0.090000        1.0080           0
    4963 QQQ  311  NMP  H2   HGA3       0.090000        1.0080           0
    4964 QQQ  311  NMP  H3   HGA3       0.090000        1.0080           0
    4965 QQQ  311  NMP  N2   NG2R53    -0.098000       14.0070           0
    4966 QQQ  311  NMP  C3   CG3C52    -0.077000       12.0110           0
    4967 QQQ  311  NMP  H4   HGA2       0.090000        1.0080           0
    4968 QQQ  311  NMP  H5   HGA2       0.090000        1.0080           0
    4969 QQQ  311  NMP  C4   CG3C52    -0.233000       12.0110           0
    4970 QQQ  311  NMP  H6   HGA2       0.090000        1.0080           0
    4971 QQQ  311  NMP  H7   HGA2       0.090000        1.0080           0
    4972 QQQ  311  NMP  C5   CG3C52    -0.027000       12.0110           0
    4973 QQQ  311  NMP  H8   HGA2       0.090000        1.0080           0
    4974 QQQ  311  NMP  H9   HGA2       0.090000        1.0080           0
    4975 QQQ  311  NMP  C6   CG2R53     0.286000       12.0110           0
    4976 QQQ  311  NMP  O7   OG2D1     -0.500000       15.9990           0
    4977 QQQ  312  NMP  C1   CG331     -0.161000       12.0110           0
    4978 QQQ  312  NMP  H1   HGA3       0.090000        1.0080           0
    4979 QQQ  312  NMP  H2   HGA3       0.090000        1.0080           0
    4980 QQQ  312  NMP  H3   HGA3       0.090000        1.0080           0
    4981 QQQ  312  NMP  N2   NG2R53    -0.098000       14.0070           0
    4982 QQQ  312  NMP  C3   CG3C52    -0.077000       12.0110           0
    4983 QQQ  312  NMP  H4   HGA2       0.090000        1.0080           0
    4984 QQQ  312  NMP  H5   HGA2       0.090000        1.0080           0
    4985 QQQ  312  NMP  C4   CG3C52    -0.233000       12.0110           0
    4986 QQQ  312  NMP  H6   HGA2       0.090000        1.0080           0
    4987 QQQ  312  NMP  H7   HGA2       0.090000        1.0080           0
    4988 QQQ  312  NMP  C5   CG3C52    -0.027000       12.0110           0
    4989 QQQ  312  NMP  H8   HGA2       0.090000        1.0080           0
    4990 QQQ  312  NMP  H9   HGA2       0.090000        1.0080           0
    4991 QQQ  312  NMP  C6   CG2R53     0.286000       12.0110           0
    4992 QQQ  312  NMP  O7   OG2D1     -0.500000       15.9990           0
    4993 QQQ  313  NMP  C1   CG331     -0.161000       12.0110           0
    4994 QQQ  313  NMP  H1   HGA3       0.090000        1.0080           0
    4995 QQQ  313  NMP  H2   HGA3       0.090000        1.0080           0
    4996 QQQ  313  NMP  H3   HGA3       0.090000        1.0080           0
    4997 QQQ  313  NMP  N2   NG2R53    -0.098000       14.0070           0
    4998 QQQ  313  NMP  C3   CG3C52    -0.077000       12.0110           0
    4999 QQQ  313  NMP  H4   HGA2       0.090000        1.0080           0
    5000 QQQ  313  NMP  H5   HGA2       0.090000        1.0080           0
    5001 QQQ  313  NMP  C4   CG3C52    -0.233000       12.0110           0
    5002 QQQ  313  NMP  H6   HGA2       0.090000        1.0080           0
    5003 QQQ  313  NMP  H7   HGA2       0.090000        1.0080           0
    5004 QQQ  313  NMP  C5   CG3C52    -0.027000       12.0110           0
    5005 QQQ  313  NMP  H8   HGA2       0.090000        1.0080           0
    5006 QQQ  313  NMP  H9   HGA2       0.090000        1.0080           0
    5007 QQQ  313  NMP  C6   CG2R53     0.286000       12.0110           0
    5008 QQQ  313  NMP  O7   OG2D1     -0.500000       15.9990           0
    5009 QQQ  314  NMP  C1   CG331     -0.161000       12.0110           0
    5010 QQQ  314  NMP  H1   HGA3       0.090000        1.0080           0
    5011 QQQ  314  NMP  H2   HGA3       0.090000        1.0080           0
    5012 QQQ  314  NMP  H3   HGA3       0.090000        1.0080           0
    5013 QQQ  314  NMP  N2   NG2R53    -0.098000       14.0070           0
    5014 QQQ  314  NMP  C3   CG3C52    -0.077000       12.0110           0
    5015 QQQ  314  NMP  H4   HGA2       0.090000        1.0080           0
    5016 QQQ  314  NMP  H5   HGA2       0.090000        1.0080           0
    5017 QQQ  314  NMP  C4   CG3C52    -0.233000       12.0110           0
    5018 QQQ  314  NMP  H6   HGA2       0.090000        1.0080           0
    5019 QQQ  314  NMP  H7   HGA2       0.090000        1.0080           0
    5020 QQQ  314  NMP  C5   CG3C52    -0.027000       12.0110           0
    5021 QQQ  314  NMP  H8   HGA2       0.090000        1.0080           0
    5022 QQQ  314  NMP  H9   HGA2       0.090000        1.0080           0
    5023 QQQ  314  NMP  C6   CG2R53     0.286000       12.0110           0
    5024 QQQ  314  NMP  O7   OG2D1     -0.500000       15.9990           0
    5025 QQQ  315  NMP  C1   CG331     -0.161000       12.0110           0
    5026 QQQ  315  NMP  H1   HGA3       0.090000        1.0080           0
    5027 QQQ  315  NMP  H2   HGA3       0.090000        1.0080           0
    5028 QQQ  315  NMP  H3   HGA3       0.090000        1.0080           0
    5029 QQQ  315  NMP  N2   NG2R53    -0.098000       14.0070           0
    5030 QQQ  315  NMP  C3   CG3C52    -0.077000       12.0110           0
    5031 QQQ  315  NMP  H4   HGA2       0.090000        1.0080           0
    5032 QQQ  315  NMP  H5   HGA2       0.090000        1.0080           0
    5033 QQQ  315  NMP  C4   CG3C52    -0.233000       12.0110           0
    5034 QQQ  315  NMP  H6   HGA2       0.090000        1.0080           0
    5035 QQQ  315  NMP  H7   HGA2       0.090000        1.0080           0
    5036 QQQ  315  NMP  C5   CG3C52    -0.027000       12.0110           0
    5037 QQQ  315  NMP  H8   HGA2       0.090000        1.0080           0
    5038 QQQ  315  NMP  H9   HGA2       0.090000        1.0080           0
    5039 QQQ  315  NMP  C6   CG2R53     0.286000       12.0110           0
    5040 QQQ  315  NMP  O7   OG2D1     -0.500000       15.9990           0
    5041 QQQ  316  NMP  C1   CG331     -0.161000       12.0110           0
    5042 QQQ  316  NMP  H1   HGA3       0.090000        1.0080           0
    5043 QQQ  316  NMP  H2   HGA3       0.090000        1.0080           0
    5044 QQQ  316  NMP  H3   HGA3       0.090000        1.0080           0
    5045 QQQ  316  NMP  N2   NG2R53    -0.098000       14.0070           0
    5046 QQQ  316  NMP  C3   CG3C52    -0.077000       12.0110           0
    5047 QQQ  316  NMP  H4   HGA2       0.090000        1.0080           0
    5048 QQQ  316  NMP  H5   HGA2       0.090000        1.0080           0
    5049 QQQ  316  NMP  C4   CG3C52    -0.233000       12.0110           0
    5050 QQQ  316  NMP  H6   HGA2       0.090000        1.0080           0
    5051 QQQ  316  NMP  H7   HGA2       0.090000        1.0080           0
    5052 QQQ  316  NMP  C5   CG3C52    -0.027000       12.0110           0
    5053 QQQ  316  NMP  H8   HGA2       0.090000        1.0080           0
    5054 QQQ  316  NMP  H9   HGA2       0.090000        1.0080           0
    5055 QQQ  316  NMP  C6   CG2R53     0.286000       12.0110           0
    5056 QQQ  316  NMP  O7   OG2D1     -0.500000       15.9990           0
    5057 QQQ  317  NMP  C1   CG331     -0.161000       12.0110           0
    5058 QQQ  317  NMP  H1   HGA3       0.090000        1.0080           0
    5059 QQQ  317  NMP  H2   HGA3       0.090000        1.0080           0
    5060 QQQ  317  NMP  H3   HGA3       0.090000        1.0080           0
    5061 QQQ  317  NMP  N2   NG2R53    -0.098000       14.0070           0
    5062 QQQ  317  NMP  C3   CG3C52    -0.077000       12.0110           0
    5063 QQQ  317  NMP  H4   HGA2       0.090000        1.0080           0
    5064 QQQ  317  NMP  H5   HGA2       0.090000        1.0080           0
    5065 QQQ  317  NMP  C4   CG3C52    -0.233000       12.0110           0
    5066 QQQ  317  NMP  H6   HGA2       0.090000        1.0080           0
    5067 QQQ  317  NMP  H7   HGA2       0.090000        1.0080           0
    5068 QQQ  317  NMP  C5   CG3C52    -0.027000       12.0110           0
    5069 QQQ  317  NMP  H8   HGA2       0.090000        1.0080           0
    5070 QQQ  317  NMP  H9   HGA2       0.090000        1.0080           0
    5071 QQQ  317  NMP  C6   CG2R53     0.286000       12.0110           0
    5072 QQQ  317  NMP  O7   OG2D1     -0.500000       15.9990           0
    5073 QQQ  318  NMP  C1   CG331     -0.161000       12.0110           0
    5074 QQQ  318  NMP  H1   HGA3       0.090000        1.0080           0
    5075 QQQ  318  NMP  H2   HGA3       0.090000        1.0080           0
    5076 QQQ  318  NMP  H3   HGA3       0.090000        1.0080           0
    5077 QQQ  318  NMP  N2   NG2R53    -0.098000       14.0070           0
    5078 QQQ  318  NMP  C3   CG3C52    -0.077000       12.0110           0
    5079 QQQ  318  NMP  H4   HGA2       0.090000        1.0080           0
    5080 QQQ  318  NMP  H5   HGA2       0.090000        1.0080           0
    5081 QQQ  318  NMP  C4   CG3C52    -0.233000       12.0110           0
    5082 QQQ  318  NMP  H6   HGA2       0.090000        1.0080           0
    5083 QQQ  318  NMP  H7   HGA2       0.090000        1.0080           0
    5084 QQQ  318  NMP  C5   CG3C52    -0.027000       12.0110           0
    5085 QQQ  318  NMP  H8   HGA2       0.090000        1.0080           0
    5086 QQQ  318  NMP  H9   HGA2       0.090000        1.0080           0
    5087 QQQ  318  NMP  C6   CG2R53     0.286000       12.0110           0
    5088 QQQ  318  NMP  O7   OG2D1     -0.500000       15.9990           0
    5089 QQQ  319  NMP  C1   CG331     -0.161000       12.0110           0
    5090 QQQ  319  NMP  H1   HGA3       0.090000        1.0080           0
    5091 QQQ  319  NMP  H2   HGA3       0.090000        1.0080           0
    5092 QQQ  319  NMP  H3   HGA3       0.090000        1.0080           0
    5093 QQQ  319  NMP  N2   NG2R53    -0.098000       14.0070           0
    5094 QQQ  319  NMP  C3   CG3C52    -0.077000       12.0110           0
    5095 QQQ  319  NMP  H4   HGA2       0.090000        1.0080           0
    5096 QQQ  319  NMP  H5   HGA2       0.090000        1.0080           0
    5097 QQQ  319  NMP  C4   CG3C52    -0.233000       12.0110           0
    5098 QQQ  319  NMP  H6   HGA2       0.090000        1.0080           0
    5099 QQQ  319  NMP  H7   HGA2       0.090000        1.0080           0
    5100 QQQ  319  NMP  C5   CG3C52    -0.027000       12.0110           0
    5101 QQQ  319  NMP  H8   HGA2       0.090000        1.0080           0
    5102 QQQ  319  NMP  H9   HGA2       0.090000        1.0080           0
    5103 QQQ  319  NMP  C6   CG2R53     0.286000       12.0110           0
    5104 QQQ  319  NMP  O7   OG2D1     -0.500000       15.9990           0
    5105 QQQ  320  NMP  C1   CG331     -0.161000       12.0110           0
    5106 QQQ  320  NMP  H1   HGA3       0.090000        1.0080           0
    5107 QQQ  320  NMP  H2   HGA3       0.090000        1.0080           0
    5108 QQQ  320  NMP  H3   HGA3       0.090000        1.0080           0
    5109 QQQ  320  NMP  N2   NG2R53    -0.098000       14.0070           0
    5110 QQQ  320  NMP  C3   CG3C52    -0.077000       12.0110           0
    5111 QQQ  320  NMP  H4   HGA2       0.090000        1.0080           0
    5112 QQQ  320  NMP  H5   HGA2       0.090000        1.0080           0
    5113 QQQ  320  NMP  C4   CG3C52    -0.233000       12.0110           0
    5114 QQQ  320  NMP  H6   HGA2       0.090000        1.0080           0
    5115 QQQ  320  NMP  H7   HGA2       0.090000        1.0080           0
    5116 QQQ  320  NMP  C5   CG3C52    -0.027000       12.0110           0
    5117 QQQ  320  NMP  H8   HGA2       0.090000        1.0080           0
    5118 QQQ  320  NMP  H9   HGA2       0.090000        1.0080           0
    5119 QQQ  320  NMP  C6   CG2R53     0.286000       12.0110           0
    5120 QQQ  320  NMP  O7   OG2D1     -0.500000       15.9990           0
    5121 QQQ  321  NMP  C1   CG331     -0.161000       12.0110           0
    5122 QQQ  321  NMP  H1   HGA3       0.090000        1.0080           0
    5123 QQQ  321  NMP  H2   HGA3       0.090000        1.0080           0
    5124 QQQ  321  NMP  H3   HGA3       0.090000        1.0080           0
    5125 QQQ  321  NMP  N2   NG2R53    -0.098000       14.0070           0
    5126 QQQ  321  NMP  C3   CG3C52    -0.077000       12.0110           0
    5127 QQQ  321  NMP  H4   HGA2       0.090000        1.0080           0
    5128 QQQ  321  NMP  H5   HGA2       0.090000        1.0080           0
    5129 QQQ  321  NMP  C4   CG3C52    -0.233000       12.0110           0
    5130 QQQ  321  NMP  H6   HGA2       0.090000        1.0080           0
    5131 QQQ  321  NMP  H7   HGA2       0.090000        1.0080           0
    5132 QQQ  321  NMP  C5   CG3C52    -0.027000       12.0110           0
    5133 QQQ  321  NMP  H8   HGA2       0.090000        1.0080           0
    5134 QQQ  321  NMP  H9   HGA2       0.090000        1.0080           0
    5135 QQQ  321  NMP  C6   CG2R53     0.286000       12.0110           0
    5136 QQQ  321  NMP  O7   OG2D1     -0.500000       15.9990           0
    5137 QQQ  322  NMP  C1   CG331     -0.161000       12.0110           0
    5138 QQQ  322  NMP  H1   HGA3       0.090000        1.0080           0
    5139 QQQ  322  NMP  H2   HGA3       0.090000        1.0080           0
    5140 QQQ  322  NMP  H3   HGA3       0.090000        1.0080           0
    5141 QQQ  322  NMP  N2   NG2R53    -0.098000       14.0070           0
    5142 QQQ  322  NMP  C3   CG3C52    -0.077000       12.0110           0
    5143 QQQ  322  NMP  H4   HGA2       0.090000        1.0080           0
    5144 QQQ  322  NMP  H5   HGA2       0.090000        1.0080           0
    5145 QQQ  322  NMP  C4   CG3C52    -0.233000       12.0110           0
    5146 QQQ  322  NMP  H6   HGA2       0.090000        1.0080           0
    5147 QQQ  322  NMP  H7   HGA2       0.090000        1.0080           0
    5148 QQQ  322  NMP  C5   CG3C52    -0.027000       12.0110           0
    5149 QQQ  322  NMP  H8   HGA2       0.090000        1.0080           0
    5150 QQQ  322  NMP  H9   HGA2       0.090000        1.0080           0
    5151 QQQ  322  NMP  C6   CG2R53     0.286000       12.0110           0
    5152 QQQ  322  NMP  O7   OG2D1     -0.500000       15.9990           0
    5153 QQQ  323  NMP  C1   CG331     -0.161000       12.0110           0
    5154 QQQ  323  NMP  H1   HGA3       0.090000        1.0080           0
    5155 QQQ  323  NMP  H2   HGA3       0.090000        1.0080           0
    5156 QQQ  323  NMP  H3   HGA3       0.090000        1.0080           0
    5157 QQQ  323  NMP  N2   NG2R53    -0.098000       14.0070           0
    5158 QQQ  323  NMP  C3   CG3C52    -0.077000       12.0110           0
    5159 QQQ  323  NMP  H4   HGA2       0.090000        1.0080           0
    5160 QQQ  323  NMP  H5   HGA2       0.090000        1.0080           0
    5161 QQQ  323  NMP  C4   CG3C52    -0.233000       12.0110           0
    5162 QQQ  323  NMP  H6   HGA2       0.090000        1.0080           0
    5163 QQQ  323  NMP  H7   HGA2       0.090000        1.0080           0
    5164 QQQ  323  NMP  C5   CG3C52    -0.027000       12.0110           0
    5165 QQQ  323  NMP  H8   HGA2       0.090000        1.0080           0
    5166 QQQ  323  NMP  H9   HGA2       0.090000        1.0080           0
    5167 QQQ  323  NMP  C6   CG2R53     0.286000       12.0110           0
    5168 QQQ  323  NMP  O7   OG2D1     -0.500000       15.9990           0
    5169 QQQ  324  NMP  C1   CG331     -0.161000       12.0110           0
    5170 QQQ  324  NMP  H1   HGA3       0.090000        1.0080           0
    5171 QQQ  324  NMP  H2   HGA3       0.090000        1.0080           0
    5172 QQQ  324  NMP  H3   HGA3       0.090000        1.0080           0
    5173 QQQ  324  NMP  N2   NG2R53    -0.098000       14.0070           0
    5174 QQQ  324  NMP  C3   CG3C52    -0.077000       12.0110           0
    5175 QQQ  324  NMP  H4   HGA2       0.090000        1.0080           0
    5176 QQQ  324  NMP  H5   HGA2       0.090000        1.0080           0
    5177 QQQ  324  NMP  C4   CG3C52    -0.233000       12.0110           0
    5178 QQQ  324  NMP  H6   HGA2       0.090000        1.0080           0
    5179 QQQ  324  NMP  H7   HGA2       0.090000        1.0080           0
    5180 QQQ  324  NMP  C5   CG3C52    -0.027000       12.0110           0
    5181 QQQ  324  NMP  H8   HGA2       0.090000        1.0080           0
    5182 QQQ  324  NMP  H9   HGA2       0.090000        1.0080           0
    5183 QQQ  324  NMP  C6   CG2R53     0.286000       12.0110           0
    5184 QQQ  324  NMP  O7   OG2D1     -0.500000       15.9990           0
    5185 QQQ  325  NMP  C1   CG331     -0.161000       12.0110           0
    5186 QQQ  325  NMP  H1   HGA3       0.090000        1.0080           0
    5187 QQQ  325  NMP  H2   HGA3       0.090000        1.0080           0
    5188 QQQ  325  NMP  H3   HGA3       0.090000        1.0080           0
    5189 QQQ  325  NMP  N2   NG2R53    -0.098000       14.0070           0
    5190 QQQ  325  NMP  C3   CG3C52    -0.077000       12.0110           0
    5191 QQQ  325  NMP  H4   HGA2       0.090000        1.0080           0
    5192 QQQ  325  NMP  H5   HGA2       0.090000        1.0080           0
    5193 QQQ  325  NMP  C4   CG3C52    -0.233000       12.0110           0
    5194 QQQ  325  NMP  H6   HGA2       0.090000        1.0080           0
    5195 QQQ  325  NMP  H7   HGA2       0.090000        1.0080           0
    5196 QQQ  325  NMP  C5   CG3C52    -0.027000       12.0110           0
    5197 QQQ  325  NMP  H8   HGA2       0.090000        1.0080           0
    5198 QQQ  325  NMP  H9   HGA2       0.090000        1.0080           0
    5199 QQQ  325  NMP  C6   CG2R53     0.286000       12.0110           0
    5200 QQQ  325  NMP  O7   OG2D1     -0.500000       15.9990           0
    5201 QQQ  326  NMP  C1   CG331     -0.161000       12.0110           0
    5202 QQQ  326  NMP  H1   HGA3       0.090000        1.0080           0
    5203 QQQ  326  NMP  H2   HGA3       0.090000        1.0080           0
    5204 QQQ  326  NMP  H3   HGA3       0.090000        1.0080           0
    5205 QQQ  326  NMP  N2   NG2R53    -0.098000       14.0070           0
    5206 QQQ  326  NMP  C3   CG3C52    -0.077000       12.0110           0
    5207 QQQ  326  NMP  H4   HGA2       0.090000        1.0080           0
    5208 QQQ  326  NMP  H5   HGA2       0.090000        1.0080           0
    5209 QQQ  326  NMP  C4   CG3C52    -0.233000       12.0110           0
    5210 QQQ  326  NMP  H6   HGA2       0.090000        1.0080           0
    5211 QQQ  326  NMP  H7   HGA2       0.090000        1.0080           0
    5212 QQQ  326  NMP  C5   CG3C52    -0.027000       12.0110           0
    5213 QQQ  326  NMP  H8   HGA2       0.090000        1.0080           0
    5214 QQQ  326  NMP  H9   HGA2       0.090000        1.0080           0
    5215 QQQ  326  NMP  C6   CG2R53     0.286000       12.0110           0
    5216 QQQ  326  NMP  O7   OG2D1     -0.500000       15.9990           0
    5217 QQQ  327  NMP  C1   CG331     -0.161000       12.0110           0
    5218 QQQ  327  NMP  H1   HGA3       0.090000        1.0080           0
    5219 QQQ  327  NMP  H2   HGA3       0.090000        1.0080           0
    5220 QQQ  327  NMP  H3   HGA3       0.090000        1.0080           0
    5221 QQQ  327  NMP  N2   NG2R53    -0.098000       14.0070           0
    5222 QQQ  327  NMP  C3   CG3C52    -0.077000       12.0110           0
    5223 QQQ  327  NMP  H4   HGA2       0.090000        1.0080           0
    5224 QQQ  327  NMP  H5   HGA2       0.090000        1.0080           0
    5225 QQQ  327  NMP  C4   CG3C52    -0.233000       12.0110           0
    5226 QQQ  327  NMP  H6   HGA2       0.090000        1.0080           0
    5227 QQQ  327  NMP  H7   HGA2       0.090000        1.0080           0
    5228 QQQ  327  NMP  C5   CG3C52    -0.027000       12.0110           0
    5229 QQQ  327  NMP  H8   HGA2       0.090000        1.0080           0
    5230 QQQ  327  NMP  H9   HGA2       0.090000        1.0080           0
    5231 QQQ  327  NMP  C6   CG2R53     0.286000       12.0110           0
    5232 QQQ  327  NMP  O7   OG2D1     -0.500000       15.9990           0
    5233 QQQ  328  NMP  C1   CG331     -0.161000       12.0110           0
    5234 QQQ  328  NMP  H1   HGA3       0.090000        1.0080           0
    5235 QQQ  328  NMP  H2   HGA3       0.090000        1.0080           0
    5236 QQQ  328  NMP  H3   HGA3       0.090000        1.0080           0
    5237 QQQ  328  NMP  N2   NG2R53    -0.098000       14.0070           0
    5238 QQQ  328  NMP  C3   CG3C52    -0.077000       12.0110           0
    5239 QQQ  328  NMP  H4   HGA2       0.090000        1.0080           0
    5240 QQQ  328  NMP  H5   HGA2       0.090000        1.0080           0
    5241 QQQ  328  NMP  C4   CG3C52    -0.233000       12.0110           0
    5242 QQQ  328  NMP  H6   HGA2       0.090000        1.0080           0
    5243 QQQ  328  NMP  H7   HGA2       0.090000        1.0080           0
    5244 QQQ  328  NMP  C5   CG3C52    -0.027000       12.0110           0
    5245 QQQ  328  NMP  H8   HGA2       0.090000        1.0080           0
    5246 QQQ  328  NMP  H9   HGA2       0.090000        1.0080           0
    5247 QQQ  328  NMP  C6   CG2R53     0.286000       12.0110           0
    5248 QQQ  328  NMP  O7   OG2D1     -0.500000       15.9990           0
    5249 QQQ  329  NMP  C1   CG331     -0.161000       12.0110           0
    5250 QQQ  329  NMP  H1   HGA3       0.090000        1.0080           0
    5251 QQQ  329  NMP  H2   HGA3       0.090000        1.0080           0
    5252 QQQ  329  NMP  H3   HGA3       0.090000        1.0080           0
    5253 QQQ  329  NMP  N2   NG2R53    -0.098000       14.0070           0
    5254 QQQ  329  NMP  C3   CG3C52    -0.077000       12.0110           0
    5255 QQQ  329  NMP  H4   HGA2       0.090000        1.0080           0
    5256 QQQ  329  NMP  H5   HGA2       0.090000        1.0080           0
    5257 QQQ  329  NMP  C4   CG3C52    -0.233000       12.0110           0
    5258 QQQ  329  NMP  H6   HGA2       0.090000        1.0080           0
    5259 QQQ  329  NMP  H7   HGA2       0.090000        1.0080           0
    5260 QQQ  329  NMP  C5   CG3C52    -0.027000       12.0110           0
    5261 QQQ  329  NMP  H8   HGA2       0.090000        1.0080           0
    5262 QQQ  329  NMP  H9   HGA2       0.090000        1.0080           0
    5263 QQQ  329  NMP  C6   CG2R53     0.286000       12.0110           0
    5264 QQQ  329  NMP  O7   OG2D1     -0.500000       15.9990           0
    5265 QQQ  330  NMP  C1   CG331     -0.161000       12.0110           0
    5266 QQQ  330  NMP  H1   HGA3       0.090000        1.0080           0
    5267 QQQ  330  NMP  H2   HGA3       0.090000        1.0080           0
    5268 QQQ  330  NMP  H3   HGA3       0.090000        1.0080           0
    5269 QQQ  330  NMP  N2   NG2R53    -0.098000       14.0070           0
    5270 QQQ  330  NMP  C3   CG3C52    -0.077000       12.0110           0
    5271 QQQ  330  NMP  H4   HGA2       0.090000        1.0080           0
    5272 QQQ  330  NMP  H5   HGA2       0.090000        1.0080           0
    5273 QQQ  330  NMP  C4   CG3C52    -0.233000       12.0110           0
    5274 QQQ  330  NMP  H6   HGA2       0.090000        1.0080           0
    5275 QQQ  330  NMP  H7   HGA2       0.090000        1.0080           0
    5276 QQQ  330  NMP  C5   CG3C52    -0.027000       12.0110           0
    5277 QQQ  330  NMP  H8   HGA2       0.090000        1.0080           0
    5278 QQQ  330  NMP  H9   HGA2       0.090000        1.0080           0
    5279 QQQ  330  NMP  C6   CG2R53     0.286000       12.0110           0
    5280 QQQ  330  NMP  O7   OG2D1     -0.500000       15.9990           0
    5281 QQQ  331  NMP  C1   CG331     -0.161000       12.0110           0
    5282 QQQ  331  NMP  H1   HGA3       0.090000        1.0080           0
    5283 QQQ  331  NMP  H2   HGA3       0.090000        1.0080           0
    5284 QQQ  331  NMP  H3   HGA3       0.090000        1.0080           0
    5285 QQQ  331  NMP  N2   NG2R53    -0.098000       14.0070           0
    5286 QQQ  331  NMP  C3   CG3C52    -0.077000       12.0110           0
    5287 QQQ  331  NMP  H4   HGA2       0.090000        1.0080           0
    5288 QQQ  331  NMP  H5   HGA2       0.090000        1.0080           0
    5289 QQQ  331  NMP  C4   CG3C52    -0.233000       12.0110           0
    5290 QQQ  331  NMP  H6   HGA2       0.090000        1.0080           0
    5291 QQQ  331  NMP  H7   HGA2       0.090000        1.0080           0
    5292 QQQ  331  NMP  C5   CG3C52    -0.027000       12.0110           0
    5293 QQQ  331  NMP  H8   HGA2       0.090000        1.0080           0
    5294 QQQ  331  NMP  H9   HGA2       0.090000        1.0080           0
    5295 QQQ  331  NMP  C6   CG2R53     0.286000       12.0110           0
    5296 QQQ  331  NMP  O7   OG2D1     -0.500000       15.9990           0
    5297 QQQ  332  NMP  C1   CG331     -0.161000       12.0110           0
    5298 QQQ  332  NMP  H1   HGA3       0.090000        1.0080           0
    5299 QQQ  332  NMP  H2   HGA3       0.090000        1.0080           0
    5300 QQQ  332  NMP  H3   HGA3       0.090000        1.0080           0
    5301 QQQ  332  NMP  N2   NG2R53    -0.098000       14.0070           0
    5302 QQQ  332  NMP  C3   CG3C52    -0.077000       12.0110           0
    5303 QQQ  332  NMP  H4   HGA2       0.090000        1.0080           0
    5304 QQQ  332  NMP  H5   HGA2       0.090000        1.0080           0
    5305 QQQ  332  NMP  C4   CG3C52    -0.233000       12.0110           0
    5306 QQQ  332  NMP  H6   HGA2       0.090000        1.0080           0
    5307 QQQ  332  NMP  H7   HGA2       0.090000        1.0080           0
    5308 QQQ  332  NMP  C5   CG3C52    -0.027000       12.0110           0
    5309 QQQ  332  NMP  H8   HGA2       0.090000        1.0080           0
    5310 QQQ  332  NMP  H9   HGA2       0.090000        1.0080           0
    5311 QQQ  332  NMP  C6   CG2R53     0.286000       12.0110           0
    5312 QQQ  332  NMP  O7   OG2D1     -0.500000       15.9990           0
    5313 QQQ  333  NMP  C1   CG331     -0.161000       12.0110           0
    5314 QQQ  333  NMP  H1   HGA3       0.090000        1.0080           0
    5315 QQQ  333  NMP  H2   HGA3       0.090000        1.0080           0
    5316 QQQ  333  NMP  H3   HGA3       0.090000        1.0080           0
    5317 QQQ  333  NMP  N2   NG2R53    -0.098000       14.0070           0
    5318 QQQ  333  NMP  C3   CG3C52    -0.077000       12.0110           0
    5319 QQQ  333  NMP  H4   HGA2       0.090000        1.0080           0
    5320 QQQ  333  NMP  H5   HGA2       0.090000        1.0080           0
    5321 QQQ  333  NMP  C4   CG3C52    -0.233000       12.0110           0
    5322 QQQ  333  NMP  H6   HGA2       0.090000        1.0080           0
    5323 QQQ  333  NMP  H7   HGA2       0.090000        1.0080           0
    5324 QQQ  333  NMP  C5   CG3C52    -0.027000       12.0110           0
    5325 QQQ  333  NMP  H8   HGA2       0.090000        1.0080           0
    5326 QQQ  333  NMP  H9   HGA2       0.090000        1.0080           0
    5327 QQQ  333  NMP  C6   CG2R53     0.286000       12.0110           0
    5328 QQQ  333  NMP  O7   OG2D1     -0.500000       15.9990           0
    5329 QQQ  334  NMP  C1   CG331     -0.161000       12.0110           0
    5330 QQQ  334  NMP  H1   HGA3       0.090000        1.0080           0
    5331 QQQ  334  NMP  H2   HGA3       0.090000        1.0080           0
    5332 QQQ  334  NMP  H3   HGA3       0.090000        1.0080           0
    5333 QQQ  334  NMP  N2   NG2R53    -0.098000       14.0070           0
    5334 QQQ  334  NMP  C3   CG3C52    -0.077000       12.0110           0
    5335 QQQ  334  NMP  H4   HGA2       0.090000        1.0080           0
    5336 QQQ  334  NMP  H5   HGA2       0.090000        1.0080           0
    5337 QQQ  334  NMP  C4   CG3C52    -0.233000       12.0110           0
    5338 QQQ  334  NMP  H6   HGA2       0.090000        1.0080           0
    5339 QQQ  334  NMP  H7   HGA2       0.090000        1.0080           0
    5340 QQQ  334  NMP  C5   CG3C52    -0.027000       12.0110           0
    5341 QQQ  334  NMP  H8   HGA2       0.090000        1.0080           0
    5342 QQQ  334  NMP  H9   HGA2       0.090000        1.0080           0
    5343 QQQ  334  NMP  C6   CG2R53     0.286000       12.0110           0
    5344 QQQ  334  NMP  O7   OG2D1     -0.500000       15.9990           0
    5345 QQQ  335  NMP  C1   CG331     -0.161000       12.0110           0
    5346 QQQ  335  NMP  H1   HGA3       0.090000        1.0080           0
    5347 QQQ  335  NMP  H2   HGA3       0.090000        1.0080           0
    5348 QQQ  335  NMP  H3   HGA3       0.090000        1.0080           0
    5349 QQQ  335  NMP  N2   NG2R53    -0.098000       14.0070           0
    5350 QQQ  335  NMP  C3   CG3C52    -0.077000       12.0110           0
    5351 QQQ  335  NMP  H4   HGA2       0.090000        1.0080           0
    5352 QQQ  335  NMP  H5   HGA2       0.090000        1.0080           0
    5353 QQQ  335  NMP  C4   CG3C52    -0.233000       12.0110           0
    5354 QQQ  335  NMP  H6   HGA2       0.090000        1.0080           0
    5355 QQQ  335  NMP  H7   HGA2       0.090000        1.0080           0
    5356 QQQ  335  NMP  C5   CG3C52    -0.027000       12.0110           0
    5357 QQQ  335  NMP  H8   HGA2       0.090000        1.0080           0
    5358 QQQ  335  NMP  H9   HGA2       0.090000        1.0080           0
    5359 QQQ  335  NMP  C6   CG2R53     0.286000       12.0110           0
    5360 QQQ  335  NMP  O7   OG2D1     -0.500000       15.9990           0
    5361 QQQ  336  NMP  C1   CG331     -0.161000       12.0110           0
    5362 QQQ  336  NMP  H1   HGA3       0.090000        1.0080           0
    5363 QQQ  336  NMP  H2   HGA3       0.090000        1.0080           0
    5364 QQQ  336  NMP  H3   HGA3       0.090000        1.0080           0
    5365 QQQ  336  NMP  N2   NG2R53    -0.098000       14.0070           0
    5366 QQQ  336  NMP  C3   CG3C52    -0.077000       12.0110           0
    5367 QQQ  336  NMP  H4   HGA2       0.090000        1.0080           0
    5368 QQQ  336  NMP  H5   HGA2       0.090000        1.0080           0
    5369 QQQ  336  NMP  C4   CG3C52    -0.233000       12.0110           0
    5370 QQQ  336  NMP  H6   HGA2       0.090000        1.0080           0
    5371 QQQ  336  NMP  H7   HGA2       0.090000        1.0080           0
    5372 QQQ  336  NMP  C5   CG3C52    -0.027000       12.0110           0
    5373 QQQ  336  NMP  H8   HGA2       0.090000        1.0080           0
    5374 QQQ  336  NMP  H9   HGA2       0.090000        1.0080           0
    5375 QQQ  336  NMP  C6   CG2R53     0.286000       12.0110           0
    5376 QQQ  336  NMP  O7   OG2D1     -0.500000       15.9990           0
    5377 QQQ  337  NMP  C1   CG331     -0.161000       12.0110           0
    5378 QQQ  337  NMP  H1   HGA3       0.090000        1.0080           0
    5379 QQQ  337  NMP  H2   HGA3       0.090000        1.0080           0
    5380 QQQ  337  NMP  H3   HGA3       0.090000        1.0080           0
    5381 QQQ  337  NMP  N2   NG2R53    -0.098000       14.0070           0
    5382 QQQ  337  NMP  C3   CG3C52    -0.077000       12.0110           0
    5383 QQQ  337  NMP  H4   HGA2       0.090000        1.0080           0
    5384 QQQ  337  NMP  H5   HGA2       0.090000        1.0080           0
    5385 QQQ  337  NMP  C4   CG3C52    -0.233000       12.0110           0
    5386 QQQ  337  NMP  H6   HGA2       0.090000        1.0080           0
    5387 QQQ  337  NMP  H7   HGA2       0.090000        1.0080           0
    5388 QQQ  337  NMP  C5   CG3C52    -0.027000       12.0110           0
    5389 QQQ  337  NMP  H8   HGA2       0.090000        1.0080           0
    5390 QQQ  337  NMP  H9   HGA2       0.090000        1.0080           0
    5391 QQQ  337  NMP  C6   CG2R53     0.286000       12.0110           0
    5392 QQQ  337  NMP  O7   OG2D1     -0.500000       15.9990           0
    5393 QQQ  338  NMP  C1   CG331     -0.161000       12.0110           0
    5394 QQQ  338  NMP  H1   HGA3       0.090000        1.0080           0
    5395 QQQ  338  NMP  H2   HGA3       0.090000        1.0080           0
    5396 QQQ  338  NMP  H3   HGA3       0.090000        1.0080           0
    5397 QQQ  338  NMP  N2   NG2R53    -0.098000       14.0070           0
    5398 QQQ  338  NMP  C3   CG3C52    -0.077000       12.0110           0
    5399 QQQ  338  NMP  H4   HGA2       0.090000        1.0080           0
    5400 QQQ  338  NMP  H5   HGA2       0.090000        1.0080           0
    5401 QQQ  338  NMP  C4   CG3C52    -0.233000       12.0110           0
    5402 QQQ  338  NMP  H6   HGA2       0.090000        1.0080           0
    5403 QQQ  338  NMP  H7   HGA2       0.090000        1.0080           0
    5404 QQQ  338  NMP  C5   CG3C52    -0.027000       12.0110           0
    5405 QQQ  338  NMP  H8   HGA2       0.090000        1.0080           0
    5406 QQQ  338  NMP  H9   HGA2       0.090000        1.0080           0
    5407 QQQ  338  NMP  C6   CG2R53     0.286000       12.0110           0
    5408 QQQ  338  NMP  O7   OG2D1     -0.500000       15.9990           0
    5409 QQQ  339  NMP  C1   CG331     -0.161000       12.0110           0
    5410 QQQ  339  NMP  H1   HGA3       0.090000        1.0080           0
    5411 QQQ  339  NMP  H2   HGA3       0.090000        1.0080           0
    5412 QQQ  339  NMP  H3   HGA3       0.090000        1.0080           0
    5413 QQQ  339  NMP  N2   NG2R53    -0.098000       14.0070           0
    5414 QQQ  339  NMP  C3   CG3C52    -0.077000       12.0110           0
    5415 QQQ  339  NMP  H4   HGA2       0.090000        1.0080           0
    5416 QQQ  339  NMP  H5   HGA2       0.090000        1.0080           0
    5417 QQQ  339  NMP  C4   CG3C52    -0.233000       12.0110           0
    5418 QQQ  339  NMP  H6   HGA2       0.090000        1.0080           0
    5419 QQQ  339  NMP  H7   HGA2       0.090000        1.0080           0
    5420 QQQ  339  NMP  C5   CG3C52    -0.027000       12.0110           0
    5421 QQQ  339  NMP  H8   HGA2       0.090000        1.0080           0
    5422 QQQ  339  NMP  H9   HGA2       0.090000        1.0080           0
    5423 QQQ  339  NMP  C6   CG2R53     0.286000       12.0110           0
    5424 QQQ  339  NMP  O7   OG2D1     -0.500000       15.9990           0
    5425 QQQ  340  NMP  C1   CG331     -0.161000       12.0110           0
    5426 QQQ  340  NMP  H1   HGA3       0.090000        1.0080           0
    5427 QQQ  340  NMP  H2   HGA3       0.090000        1.0080           0
    5428 QQQ  340  NMP  H3   HGA3       0.090000        1.0080           0
    5429 QQQ  340  NMP  N2   NG2R53    -0.098000       14.0070           0
    5430 QQQ  340  NMP  C3   CG3C52    -0.077000       12.0110           0
    5431 QQQ  340  NMP  H4   HGA2       0.090000        1.0080           0
    5432 QQQ  340  NMP  H5   HGA2       0.090000        1.0080           0
    5433 QQQ  340  NMP  C4   CG3C52    -0.233000       12.0110           0
    5434 QQQ  340  NMP  H6   HGA2       0.090000        1.0080           0
    5435 QQQ  340  NMP  H7   HGA2       0.090000        1.0080           0
    5436 QQQ  340  NMP  C5   CG3C52    -0.027000       12.0110           0
    5437 QQQ  340  NMP  H8   HGA2       0.090000        1.0080           0
    5438 QQQ  340  NMP  H9   HGA2       0.090000        1.0080           0
    5439 QQQ  340  NMP  C6   CG2R53     0.286000       12.0110           0
    5440 QQQ  340  NMP  O7   OG2D1     -0.500000       15.9990           0
    5441 QQQ  341  NMP  C1   CG331     -0.161000       12.0110           0
    5442 QQQ  341  NMP  H1   HGA3       0.090000        1.0080           0
    5443 QQQ  341  NMP  H2   HGA3       0.090000        1.0080           0
    5444 QQQ  341  NMP  H3   HGA3       0.090000        1.0080           0
    5445 QQQ  341  NMP  N2   NG2R53    -0.098000       14.0070           0
    5446 QQQ  341  NMP  C3   CG3C52    -0.077000       12.0110           0
    5447 QQQ  341  NMP  H4   HGA2       0.090000        1.0080           0
    5448 QQQ  341  NMP  H5   HGA2       0.090000        1.0080           0
    5449 QQQ  341  NMP  C4   CG3C52    -0.233000       12.0110           0
    5450 QQQ  341  NMP  H6   HGA2       0.090000        1.0080           0
    5451 QQQ  341  NMP  H7   HGA2       0.090000        1.0080           0
    5452 QQQ  341  NMP  C5   CG3C52    -0.027000       12.0110           0
    5453 QQQ  341  NMP  H8   HGA2       0.090000        1.0080           0
    5454 QQQ  341  NMP  H9   HGA2       0.090000        1.0080           0
    5455 QQQ  341  NMP  C6   CG2R53     0.286000       12.0110           0
    5456 QQQ  341  NMP  O7   OG2D1     -0.500000       15.9990           0
    5457 QQQ  342  NMP  C1   CG331     -0.161000       12.0110           0
    5458 QQQ  342  NMP  H1   HGA3       0.090000        1.0080           0
    5459 QQQ  342  NMP  H2   HGA3       0.090000        1.0080           0
    5460 QQQ  342  NMP  H3   HGA3       0.090000        1.0080           0
    5461 QQQ  342  NMP  N2   NG2R53    -0.098000       14.0070           0
    5462 QQQ  342  NMP  C3   CG3C52    -0.077000       12.0110           0
    5463 QQQ  342  NMP  H4   HGA2       0.090000        1.0080           0
    5464 QQQ  342  NMP  H5   HGA2       0.090000        1.0080           0
    5465 QQQ  342  NMP  C4   CG3C52    -0.233000       12.0110           0
    5466 QQQ  342  NMP  H6   HGA2       0.090000        1.0080           0
    5467 QQQ  342  NMP  H7   HGA2       0.090000        1.0080           0
    5468 QQQ  342  NMP  C5   CG3C52    -0.027000       12.0110           0
    5469 QQQ  342  NMP  H8   HGA2       0.090000        1.0080           0
    5470 QQQ  342  NMP  H9   HGA2       0.090000        1.0080           0
    5471 QQQ  342  NMP  C6   CG2R53     0.286000       12.0110           0
    5472 QQQ  342  NMP  O7   OG2D1     -0.500000       15.9990           0
    5473 QQQ  343  NMP  C1   CG331     -0.161000       12.0110           0
    5474 QQQ  343  NMP  H1   HGA3       0.090000        1.0080           0
    5475 QQQ  343  NMP  H2   HGA3       0.090000        1.0080           0
    5476 QQQ  343  NMP  H3   HGA3       0.090000        1.0080           0
    5477 QQQ  343  NMP  N2   NG2R53    -0.098000       14.0070           0
    5478 QQQ  343  NMP  C3   CG3C52    -0.077000       12.0110           0
    5479 QQQ  343  NMP  H4   HGA2       0.090000        1.0080           0
    5480 QQQ  343  NMP  H5   HGA2       0.090000        1.0080           0
    5481 QQQ  343  NMP  C4   CG3C52    -0.233000       12.0110           0
    5482 QQQ  343  NMP  H6   HGA2       0.090000        1.0080           0
    5483 QQQ  343  NMP  H7   HGA2       0.090000        1.0080           0
    5484 QQQ  343  NMP  C5   CG3C52    -0.027000       12.0110           0
    5485 QQQ  343  NMP  H8   HGA2       0.090000        1.0080           0
    5486 QQQ  343  NMP  H9   HGA2       0.090000        1.0080           0
    5487 QQQ  343  NMP  C6   CG2R53     0.286000       12.0110           0
    5488 QQQ  343  NMP  O7   OG2D1     -0.500000       15.9990           0
    5489 QQQ  344  NMP  C1   CG331     -0.161000       12.0110           0
    5490 QQQ  344  NMP  H1   HGA3       0.090000        1.0080           0
    5491 QQQ  344  NMP  H2   HGA3       0.090000        1.0080           0
    5492 QQQ  344  NMP  H3   HGA3       0.090000        1.0080           0
    5493 QQQ  344  NMP  N2   NG2R53    -0.098000       14.0070           0
    5494 QQQ  344  NMP  C3   CG3C52    -0.077000       12.0110           0
    5495 QQQ  344  NMP  H4   HGA2       0.090000        1.0080           0
    5496 QQQ  344  NMP  H5   HGA2       0.090000        1.0080           0
    5497 QQQ  344  NMP  C4   CG3C52    -0.233000       12.0110           0
    5498 QQQ  344  NMP  H6   HGA2       0.090000        1.0080           0
    5499 QQQ  344  NMP  H7   HGA2       0.090000        1.0080           0
    5500 QQQ  344  NMP  C5   CG3C52    -0.027000       12.0110           0
    5501 QQQ  344  NMP  H8   HGA2       0.090000        1.0080           0
    5502 QQQ  344  NMP  H9   HGA2       0.090000        1.0080           0
    5503 QQQ  344  NMP  C6   CG2R53     0.286000       12.0110           0
    5504 QQQ  344  NMP  O7   OG2D1     -0.500000       15.9990           0
    5505 QQQ  345  NMP  C1   CG331     -0.161000       12.0110           0
    5506 QQQ  345  NMP  H1   HGA3       0.090000        1.0080           0
    5507 QQQ  345  NMP  H2   HGA3       0.090000        1.0080           0
    5508 QQQ  345  NMP  H3   HGA3       0.090000        1.0080           0
    5509 QQQ  345  NMP  N2   NG2R53    -0.098000       14.0070           0
    5510 QQQ  345  NMP  C3   CG3C52    -0.077000       12.0110           0
    5511 QQQ  345  NMP  H4   HGA2       0.090000        1.0080           0
    5512 QQQ  345  NMP  H5   HGA2       0.090000        1.0080           0
    5513 QQQ  345  NMP  C4   CG3C52    -0.233000       12.0110           0
    5514 QQQ  345  NMP  H6   HGA2       0.090000        1.0080           0
    5515 QQQ  345  NMP  H7   HGA2       0.090000        1.0080           0
    5516 QQQ  345  NMP  C5   CG3C52    -0.027000       12.0110           0
    5517 QQQ  345  NMP  H8   HGA2       0.090000        1.0080           0
    5518 QQQ  345  NMP  H9   HGA2       0.090000        1.0080           0
    5519 QQQ  345  NMP  C6   CG2R53     0.286000       12.0110           0
    5520 QQQ  345  NMP  O7   OG2D1     -0.500000       15.9990           0
    5521 QQQ  346  NMP  C1   CG331     -0.161000       12.0110           0
    5522 QQQ  346  NMP  H1   HGA3       0.090000        1.0080           0
    5523 QQQ  346  NMP  H2   HGA3       0.090000        1.0080           0
    5524 QQQ  346  NMP  H3   HGA3       0.090000        1.0080           0
    5525 QQQ  346  NMP  N2   NG2R53    -0.098000       14.0070           0
    5526 QQQ  346  NMP  C3   CG3C52    -0.077000       12.0110           0
    5527 QQQ  346  NMP  H4   HGA2       0.090000        1.0080           0
    5528 QQQ  346  NMP  H5   HGA2       0.090000        1.0080           0
    5529 QQQ  346  NMP  C4   CG3C52    -0.233000       12.0110           0
    5530 QQQ  346  NMP  H6   HGA2       0.090000        1.0080           0
    5531 QQQ  346  NMP  H7   HGA2       0.090000        1.0080           0
    5532 QQQ  346  NMP  C5   CG3C52    -0.027000       12.0110           0
    5533 QQQ  346  NMP  H8   HGA2       0.090000        1.0080           0
    5534 QQQ  346  NMP  H9   HGA2       0.090000        1.0080           0
    5535 QQQ  346  NMP  C6   CG2R53     0.286000       12.0110           0
    5536 QQQ  346  NMP  O7   OG2D1     -0.500000       15.9990           0
    5537 QQQ  347  NMP  C1   CG331     -0.161000       12.0110           0
    5538 QQQ  347  NMP  H1   HGA3       0.090000        1.0080           0
    5539 QQQ  347  NMP  H2   HGA3       0.090000        1.0080           0
    5540 QQQ  347  NMP  H3   HGA3       0.090000        1.0080           0
    5541 QQQ  347  NMP  N2   NG2R53    -0.098000       14.0070           0
    5542 QQQ  347  NMP  C3   CG3C52    -0.077000       12.0110           0
    5543 QQQ  347  NMP  H4   HGA2       0.090000        1.0080           0
    5544 QQQ  347  NMP  H5   HGA2       0.090000        1.0080           0
    5545 QQQ  347  NMP  C4   CG3C52    -0.233000       12.0110           0
    5546 QQQ  347  NMP  H6   HGA2       0.090000        1.0080           0
    5547 QQQ  347  NMP  H7   HGA2       0.090000        1.0080           0
    5548 QQQ  347  NMP  C5   CG3C52    -0.027000       12.0110           0
    5549 QQQ  347  NMP  H8   HGA2       0.090000        1.0080           0
    5550 QQQ  347  NMP  H9   HGA2       0.090000        1.0080           0
    5551 QQQ  347  NMP  C6   CG2R53     0.286000       12.0110           0
    5552 QQQ  347  NMP  O7   OG2D1     -0.500000       15.9990           0
    5553 QQQ  348  NMP  C1   CG331     -0.161000       12.0110           0
    5554 QQQ  348  NMP  H1   HGA3       0.090000        1.0080           0
    5555 QQQ  348  NMP  H2   HGA3       0.090000        1.0080           0
    5556 QQQ  348  NMP  H3   HGA3       0.090000        1.0080           0
    5557 QQQ  348  NMP  N2   NG2R53    -0.098000       14.0070           0
    5558 QQQ  348  NMP  C3   CG3C52    -0.077000       12.0110           0
    5559 QQQ  348  NMP  H4   HGA2       0.090000        1.0080           0
    5560 QQQ  348  NMP  H5   HGA2       0.090000        1.0080           0
    5561 QQQ  348  NMP  C4   CG3C52    -0.233000       12.0110           0
    5562 QQQ  348  NMP  H6   HGA2       0.090000        1.0080           0
    5563 QQQ  348  NMP  H7   HGA2       0.090000        1.0080           0
    5564 QQQ  348  NMP  C5   CG3C52    -0.027000       12.0110           0
    5565 QQQ  348  NMP  H8   HGA2       0.090000        1.0080           0
    5566 QQQ  348  NMP  H9   HGA2       0.090000        1.0080           0
    5567 QQQ  348  NMP  C6   CG2R53     0.286000       12.0110           0
    5568 QQQ  348  NMP  O7   OG2D1     -0.500000       15.9990           0
    5569 QQQ  349  NMP  C1   CG331     -0.161000       12.0110           0
    5570 QQQ  349  NMP  H1   HGA3       0.090000        1.0080           0
    5571 QQQ  349  NMP  H2   HGA3       0.090000        1.0080           0
    5572 QQQ  349  NMP  H3   HGA3       0.090000        1.0080           0
    5573 QQQ  349  NMP  N2   NG2R53    -0.098000       14.0070           0
    5574 QQQ  349  NMP  C3   CG3C52    -0.077000       12.0110           0
    5575 QQQ  349  NMP  H4   HGA2       0.090000        1.0080           0
    5576 QQQ  349  NMP  H5   HGA2       0.090000        1.0080           0
    5577 QQQ  349  NMP  C4   CG3C52    -0.233000       12.0110           0
    5578 QQQ  349  NMP  H6   HGA2       0.090000        1.0080           0
    5579 QQQ  349  NMP  H7   HGA2       0.090000        1.0080           0
    5580 QQQ  349  NMP  C5   CG3C52    -0.027000       12.0110           0
    5581 QQQ  349  NMP  H8   HGA2       0.090000        1.0080           0
    5582 QQQ  349  NMP  H9   HGA2       0.090000        1.0080           0
    5583 QQQ  349  NMP  C6   CG2R53     0.286000       12.0110           0
    5584 QQQ  349  NMP  O7   OG2D1     -0.500000       15.9990           0
    5585 QQQ  350  NMP  C1   CG331     -0.161000       12.0110           0
    5586 QQQ  350  NMP  H1   HGA3       0.090000        1.0080           0
    5587 QQQ  350  NMP  H2   HGA3       0.090000        1.0080           0
    5588 QQQ  350  NMP  H3   HGA3       0.090000        1.0080           0
    5589 QQQ  350  NMP  N2   NG2R53    -0.098000       14.0070           0
    5590 QQQ  350  NMP  C3   CG3C52    -0.077000       12.0110           0
    5591 QQQ  350  NMP  H4   HGA2       0.090000        1.0080           0
    5592 QQQ  350  NMP  H5   HGA2       0.090000        1.0080           0
    5593 QQQ  350  NMP  C4   CG3C52    -0.233000       12.0110           0
    5594 QQQ  350  NMP  H6   HGA2       0.090000        1.0080           0
    5595 QQQ  350  NMP  H7   HGA2       0.090000        1.0080           0
    5596 QQQ  350  NMP  C5   CG3C52    -0.027000       12.0110           0
    5597 QQQ  350  NMP  H8   HGA2       0.090000        1.0080           0
    5598 QQQ  350  NMP  H9   HGA2       0.090000        1.0080           0
    5599 QQQ  350  NMP  C6   CG2R53     0.286000       12.0110           0
    5600 QQQ  350  NMP  O7   OG2D1     -0.500000       15.9990           0
    5601 QQQ  351  NMP  C1   CG331     -0.161000       12.0110           0
    5602 QQQ  351  NMP  H1   HGA3       0.090000        1.0080           0
    5603 QQQ  351  NMP  H2   HGA3       0.090000        1.0080           0
    5604 QQQ  351  NMP  H3   HGA3       0.090000        1.0080           0
    5605 QQQ  351  NMP  N2   NG2R53    -0.098000       14.0070           0
    5606 QQQ  351  NMP  C3   CG3C52    -0.077000       12.0110           0
    5607 QQQ  351  NMP  H4   HGA2       0.090000        1.0080           0
    5608 QQQ  351  NMP  H5   HGA2       0.090000        1.0080           0
    5609 QQQ  351  NMP  C4   CG3C52    -0.233000       12.0110           0
    5610 QQQ  351  NMP  H6   HGA2       0.090000        1.0080           0
    5611 QQQ  351  NMP  H7   HGA2       0.090000        1.0080           0
    5612 QQQ  351  NMP  C5   CG3C52    -0.027000       12.0110           0
    5613 QQQ  351  NMP  H8   HGA2       0.090000        1.0080           0
    5614 QQQ  351  NMP  H9   HGA2       0.090000        1.0080           0
    5615 QQQ  351  NMP  C6   CG2R53     0.286000       12.0110           0
    5616 QQQ  351  NMP  O7   OG2D1     -0.500000       15.9990           0
    5617 QQQ  352  NMP  C1   CG331     -0.161000       12.0110           0
    5618 QQQ  352  NMP  H1   HGA3       0.090000        1.0080           0
    5619 QQQ  352  NMP  H2   HGA3       0.090000        1.0080           0
    5620 QQQ  352  NMP  H3   HGA3       0.090000        1.0080           0
    5621 QQQ  352  NMP  N2   NG2R53    -0.098000       14.0070           0
    5622 QQQ  352  NMP  C3   CG3C52    -0.077000       12.0110           0
    5623 QQQ  352  NMP  H4   HGA2       0.090000        1.0080           0
    5624 QQQ  352  NMP  H5   HGA2       0.090000        1.0080           0
    5625 QQQ  352  NMP  C4   CG3C52    -0.233000       12.0110           0
    5626 QQQ  352  NMP  H6   HGA2       0.090000        1.0080           0
    5627 QQQ  352  NMP  H7   HGA2       0.090000        1.0080           0
    5628 QQQ  352  NMP  C5   CG3C52    -0.027000       12.0110           0
    5629 QQQ  352  NMP  H8   HGA2       0.090000        1.0080           0
    5630 QQQ  352  NMP  H9   HGA2       0.090000        1.0080           0
    5631 QQQ  352  NMP  C6   CG2R53     0.286000       12.0110           0
    5632 QQQ  352  NMP  O7   OG2D1     -0.500000       15.9990           0
    5633 QQQ  353  NMP  C1   CG331     -0.161000       12.0110           0
    5634 QQQ  353  NMP  H1   HGA3       0.090000        1.0080           0
    5635 QQQ  353  NMP  H2   HGA3       0.090000        1.0080           0
    5636 QQQ  353  NMP  H3   HGA3       0.090000        1.0080           0
    5637 QQQ  353  NMP  N2   NG2R53    -0.098000       14.0070           0
    5638 QQQ  353  NMP  C3   CG3C52    -0.077000       12.0110           0
    5639 QQQ  353  NMP  H4   HGA2       0.090000        1.0080           0
    5640 QQQ  353  NMP  H5   HGA2       0.090000        1.0080           0
    5641 QQQ  353  NMP  C4   CG3C52    -0.233000       12.0110           0
    5642 QQQ  353  NMP  H6   HGA2       0.090000        1.0080           0
    5643 QQQ  353  NMP  H7   HGA2       0.090000        1.0080           0
    5644 QQQ  353  NMP  C5   CG3C52    -0.027000       12.0110           0
    5645 QQQ  353  NMP  H8   HGA2       0.090000        1.0080           0
    5646 QQQ  353  NMP  H9   HGA2       0.090000        1.0080           0
    5647 QQQ  353  NMP  C6   CG2R53     0.286000       12.0110           0
    5648 QQQ  353  NMP  O7   OG2D1     -0.500000       15.9990           0
    5649 QQQ  354  NMP  C1   CG331     -0.161000       12.0110           0
    5650 QQQ  354  NMP  H1   HGA3       0.090000        1.0080           0
    5651 QQQ  354  NMP  H2   HGA3       0.090000        1.0080           0
    5652 QQQ  354  NMP  H3   HGA3       0.090000        1.0080           0
    5653 QQQ  354  NMP  N2   NG2R53    -0.098000       14.0070           0
    5654 QQQ  354  NMP  C3   CG3C52    -0.077000       12.0110           0
    5655 QQQ  354  NMP  H4   HGA2       0.090000        1.0080           0
    5656 QQQ  354  NMP  H5   HGA2       0.090000        1.0080           0
    5657 QQQ  354  NMP  C4   CG3C52    -0.233000       12.0110           0
    5658 QQQ  354  NMP  H6   HGA2       0.090000        1.0080           0
    5659 QQQ  354  NMP  H7   HGA2       0.090000        1.0080           0
    5660 QQQ  354  NMP  C5   CG3C52    -0.027000       12.0110           0
    5661 QQQ  354  NMP  H8   HGA2       0.090000        1.0080           0
    5662 QQQ  354  NMP  H9   HGA2       0.090000        1.0080           0
    5663 QQQ  354  NMP  C6   CG2R53     0.286000       12.0110           0
    5664 QQQ  354  NMP  O7   OG2D1     -0.500000       15.9990           0
    5665 QQQ  355  NMP  C1   CG331     -0.161000       12.0110           0
    5666 QQQ  355  NMP  H1   HGA3       0.090000        1.0080           0
    5667 QQQ  355  NMP  H2   HGA3       0.090000        1.0080           0
    5668 QQQ  355  NMP  H3   HGA3       0.090000        1.0080           0
    5669 QQQ  355  NMP  N2   NG2R53    -0.098000       14.0070           0
    5670 QQQ  355  NMP  C3   CG3C52    -0.077000       12.0110           0
    5671 QQQ  355  NMP  H4   HGA2       0.090000        1.0080           0
    5672 QQQ  355  NMP  H5   HGA2       0.090000        1.0080           0
    5673 QQQ  355  NMP  C4   CG3C52    -0.233000       12.0110           0
    5674 QQQ  355  NMP  H6   HGA2       0.090000        1.0080           0
    5675 QQQ  355  NMP  H7   HGA2       0.090000        1.0080           0
    5676 QQQ  355  NMP  C5   CG3C52    -0.027000       12.0110           0
    5677 QQQ  355  NMP  H8   HGA2       0.090000        1.0080           0
    5678 QQQ  355  NMP  H9   HGA2       0.090000        1.0080           0
    5679 QQQ  355  NMP  C6   CG2R53     0.286000       12.0110           0
    5680 QQQ  355  NMP  O7   OG2D1     -0.500000       15.9990           0
    5681 QQQ  356  NMP  C1   CG331     -0.161000       12.0110           0
    5682 QQQ  356  NMP  H1   HGA3       0.090000        1.0080           0
    5683 QQQ  356  NMP  H2   HGA3       0.090000        1.0080           0
    5684 QQQ  356  NMP  H3   HGA3       0.090000        1.0080           0
    5685 QQQ  356  NMP  N2   NG2R53    -0.098000       14.0070           0
    5686 QQQ  356  NMP  C3   CG3C52    -0.077000       12.0110           0
    5687 QQQ  356  NMP  H4   HGA2       0.090000        1.0080           0
    5688 QQQ  356  NMP  H5   HGA2       0.090000        1.0080           0
    5689 QQQ  356  NMP  C4   CG3C52    -0.233000       12.0110           0
    5690 QQQ  356  NMP  H6   HGA2       0.090000        1.0080           0
    5691 QQQ  356  NMP  H7   HGA2       0.090000        1.0080           0
    5692 QQQ  356  NMP  C5   CG3C52    -0.027000       12.0110           0
    5693 QQQ  356  NMP  H8   HGA2       0.090000        1.0080           0
    5694 QQQ  356  NMP  H9   HGA2       0.090000        1.0080           0
    5695 QQQ  356  NMP  C6   CG2R53     0.286000       12.0110           0
    5696 QQQ  356  NMP  O7   OG2D1     -0.500000       15.9990           0
    5697 QQQ  357  NMP  C1   CG331     -0.161000       12.0110           0
    5698 QQQ  357  NMP  H1   HGA3       0.090000        1.0080           0
    5699 QQQ  357  NMP  H2   HGA3       0.090000        1.0080           0
    5700 QQQ  357  NMP  H3   HGA3       0.090000        1.0080           0
    5701 QQQ  357  NMP  N2   NG2R53    -0.098000       14.0070           0
    5702 QQQ  357  NMP  C3   CG3C52    -0.077000       12.0110           0
    5703 QQQ  357  NMP  H4   HGA2       0.090000        1.0080           0
    5704 QQQ  357  NMP  H5   HGA2       0.090000        1.0080           0
    5705 QQQ  357  NMP  C4   CG3C52    -0.233000       12.0110           0
    5706 QQQ  357  NMP  H6   HGA2       0.090000        1.0080           0
    5707 QQQ  357  NMP  H7   HGA2       0.090000        1.0080           0
    5708 QQQ  357  NMP  C5   CG3C52    -0.027000       12.0110           0
    5709 QQQ  357  NMP  H8   HGA2       0.090000        1.0080           0
    5710 QQQ  357  NMP  H9   HGA2       0.090000        1.0080           0
    5711 QQQ  357  NMP  C6   CG2R53     0.286000       12.0110           0
    5712 QQQ  357  NMP  O7   OG2D1     -0.500000       15.9990           0
    5713 QQQ  358  NMP  C1   CG331     -0.161000       12.0110           0
    5714 QQQ  358  NMP  H1   HGA3       0.090000        1.0080           0
    5715 QQQ  358  NMP  H2   HGA3       0.090000        1.0080           0
    5716 QQQ  358  NMP  H3   HGA3       0.090000        1.0080           0
    5717 QQQ  358  NMP  N2   NG2R53    -0.098000       14.0070           0
    5718 QQQ  358  NMP  C3   CG3C52    -0.077000       12.0110           0
    5719 QQQ  358  NMP  H4   HGA2       0.090000        1.0080           0
    5720 QQQ  358  NMP  H5   HGA2       0.090000        1.0080           0
    5721 QQQ  358  NMP  C4   CG3C52    -0.233000       12.0110           0
    5722 QQQ  358  NMP  H6   HGA2       0.090000        1.0080           0
    5723 QQQ  358  NMP  H7   HGA2       0.090000        1.0080           0
    5724 QQQ  358  NMP  C5   CG3C52    -0.027000       12.0110           0
    5725 QQQ  358  NMP  H8   HGA2       0.090000        1.0080           0
    5726 QQQ  358  NMP  H9   HGA2       0.090000        1.0080           0
    5727 QQQ  358  NMP  C6   CG2R53     0.286000       12.0110           0
    5728 QQQ  358  NMP  O7   OG2D1     -0.500000       15.9990           0
    5729 QQQ  359  NMP  C1   CG331     -0.161000       12.0110           0
    5730 QQQ  359  NMP  H1   HGA3       0.090000        1.0080           0
    5731 QQQ  359  NMP  H2   HGA3       0.090000        1.0080           0
    5732 QQQ  359  NMP  H3   HGA3       0.090000        1.0080           0
    5733 QQQ  359  NMP  N2   NG2R53    -0.098000       14.0070           0
    5734 QQQ  359  NMP  C3   CG3C52    -0.077000       12.0110           0
    5735 QQQ  359  NMP  H4   HGA2       0.090000        1.0080           0
    5736 QQQ  359  NMP  H5   HGA2       0.090000        1.0080           0
    5737 QQQ  359  NMP  C4   CG3C52    -0.233000       12.0110           0
    5738 QQQ  359  NMP  H6   HGA2       0.090000        1.0080           0
    5739 QQQ  359  NMP  H7   HGA2       0.090000        1.0080           0
    5740 QQQ  359  NMP  C5   CG3C52    -0.027000       12.0110           0
    5741 QQQ  359  NMP  H8   HGA2       0.090000        1.0080           0
    5742 QQQ  359  NMP  H9   HGA2       0.090000        1.0080           0
    5743 QQQ  359  NMP  C6   CG2R53     0.286000       12.0110           0
    5744 QQQ  359  NMP  O7   OG2D1     -0.500000       15.9990           0
    5745 QQQ  360  NMP  C1   CG331     -0.161000       12.0110           0
    5746 QQQ  360  NMP  H1   HGA3       0.090000        1.0080           0
    5747 QQQ  360  NMP  H2   HGA3       0.090000        1.0080           0
    5748 QQQ  360  NMP  H3   HGA3       0.090000        1.0080           0
    5749 QQQ  360  NMP  N2   NG2R53    -0.098000       14.0070           0
    5750 QQQ  360  NMP  C3   CG3C52    -0.077000       12.0110           0
    5751 QQQ  360  NMP  H4   HGA2       0.090000        1.0080           0
    5752 QQQ  360  NMP  H5   HGA2       0.090000        1.0080           0
    5753 QQQ  360  NMP  C4   CG3C52    -0.233000       12.0110           0
    5754 QQQ  360  NMP  H6   HGA2       0.090000        1.0080           0
    5755 QQQ  360  NMP  H7   HGA2       0.090000        1.0080           0
    5756 QQQ  360  NMP  C5   CG3C52    -0.027000       12.0110           0
    5757 QQQ  360  NMP  H8   HGA2       0.090000        1.0080           0
    5758 QQQ  360  NMP  H9   HGA2       0.090000        1.0080           0
    5759 QQQ  360  NMP  C6   CG2R53     0.286000       12.0110           0
    5760 QQQ  360  NMP  O7   OG2D1     -0.500000       15.9990           0
    5761 QQQ  361  NMP  C1   CG331     -0.161000       12.0110           0
    5762 QQQ  361  NMP  H1   HGA3       0.090000        1.0080           0
    5763 QQQ  361  NMP  H2   HGA3       0.090000        1.0080           0
    5764 QQQ  361  NMP  H3   HGA3       0.090000        1.0080           0
    5765 QQQ  361  NMP  N2   NG2R53    -0.098000       14.0070           0
    5766 QQQ  361  NMP  C3   CG3C52    -0.077000       12.0110           0
    5767 QQQ  361  NMP  H4   HGA2       0.090000        1.0080           0
    5768 QQQ  361  NMP  H5   HGA2       0.090000        1.0080           0
    5769 QQQ  361  NMP  C4   CG3C52    -0.233000       12.0110           0
    5770 QQQ  361  NMP  H6   HGA2       0.090000        1.0080           0
    5771 QQQ  361  NMP  H7   HGA2       0.090000        1.0080           0
    5772 QQQ  361  NMP  C5   CG3C52    -0.027000       12.0110           0
    5773 QQQ  361  NMP  H8   HGA2       0.090000        1.0080           0
    5774 QQQ  361  NMP  H9   HGA2       0.090000        1.0080           0
    5775 QQQ  361  NMP  C6   CG2R53     0.286000       12.0110           0
    5776 QQQ  361  NMP  O7   OG2D1     -0.500000       15.9990           0
    5777 QQQ  362  NMP  C1   CG331     -0.161000       12.0110           0
    5778 QQQ  362  NMP  H1   HGA3       0.090000        1.0080           0
    5779 QQQ  362  NMP  H2   HGA3       0.090000        1.0080           0
    5780 QQQ  362  NMP  H3   HGA3       0.090000        1.0080           0
    5781 QQQ  362  NMP  N2   NG2R53    -0.098000       14.0070           0
    5782 QQQ  362  NMP  C3   CG3C52    -0.077000       12.0110           0
    5783 QQQ  362  NMP  H4   HGA2       0.090000        1.0080           0
    5784 QQQ  362  NMP  H5   HGA2       0.090000        1.0080           0
    5785 QQQ  362  NMP  C4   CG3C52    -0.233000       12.0110           0
    5786 QQQ  362  NMP  H6   HGA2       0.090000        1.0080           0
    5787 QQQ  362  NMP  H7   HGA2       0.090000        1.0080           0
    5788 QQQ  362  NMP  C5   CG3C52    -0.027000       12.0110           0
    5789 QQQ  362  NMP  H8   HGA2       0.090000        1.0080           0
    5790 QQQ  362  NMP  H9   HGA2       0.090000        1.0080           0
    5791 QQQ  362  NMP  C6   CG2R53     0.286000       12.0110           0
    5792 QQQ  362  NMP  O7   OG2D1     -0.500000       15.9990           0
    5793 QQQ  363  NMP  C1   CG331     -0.161000       12.0110           0
    5794 QQQ  363  NMP  H1   HGA3       0.090000        1.0080           0
    5795 QQQ  363  NMP  H2   HGA3       0.090000        1.0080           0
    5796 QQQ  363  NMP  H3   HGA3       0.090000        1.0080           0
    5797 QQQ  363  NMP  N2   NG2R53    -0.098000       14.0070           0
    5798 QQQ  363  NMP  C3   CG3C52    -0.077000       12.0110           0
    5799 QQQ  363  NMP  H4   HGA2       0.090000        1.0080           0
    5800 QQQ  363  NMP  H5   HGA2       0.090000        1.0080           0
    5801 QQQ  363  NMP  C4   CG3C52    -0.233000       12.0110           0
    5802 QQQ  363  NMP  H6   HGA2       0.090000        1.0080           0
    5803 QQQ  363  NMP  H7   HGA2       0.090000        1.0080           0
    5804 QQQ  363  NMP  C5   CG3C52    -0.027000       12.0110           0
    5805 QQQ  363  NMP  H8   HGA2       0.090000        1.0080           0
    5806 QQQ  363  NMP  H9   HGA2       0.090000        1.0080           0
    5807 QQQ  363  NMP  C6   CG2R53     0.286000       12.0110           0
    5808 QQQ  363  NMP  O7   OG2D1     -0.500000       15.9990           0
    5809 QQQ  364  NMP  C1   CG331     -0.161000       12.0110           0
    5810 QQQ  364  NMP  H1   HGA3       0.090000        1.0080           0
    5811 QQQ  364  NMP  H2   HGA3       0.090000        1.0080           0
    5812 QQQ  364  NMP  H3   HGA3       0.090000        1.0080           0
    5813 QQQ  364  NMP  N2   NG2R53    -0.098000       14.0070           0
    5814 QQQ  364  NMP  C3   CG3C52    -0.077000       12.0110           0
    5815 QQQ  364  NMP  H4   HGA2       0.090000        1.0080           0
    5816 QQQ  364  NMP  H5   HGA2       0.090000        1.0080           0
    5817 QQQ  364  NMP  C4   CG3C52    -0.233000       12.0110           0
    5818 QQQ  364  NMP  H6   HGA2       0.090000        1.0080           0
    5819 QQQ  364  NMP  H7   HGA2       0.090000        1.0080           0
    5820 QQQ  364  NMP  C5   CG3C52    -0.027000       12.0110           0
    5821 QQQ  364  NMP  H8   HGA2       0.090000        1.0080           0
    5822 QQQ  364  NMP  H9   HGA2       0.090000        1.0080           0
    5823 QQQ  364  NMP  C6   CG2R53     0.286000       12.0110           0
    5824 QQQ  364  NMP  O7   OG2D1     -0.500000       15.9990           0
    5825 QQQ  365  NMP  C1   CG331     -0.161000       12.0110           0
    5826 QQQ  365  NMP  H1   HGA3       0.090000        1.0080           0
    5827 QQQ  365  NMP  H2   HGA3       0.090000        1.0080           0
    5828 QQQ  365  NMP  H3   HGA3       0.090000        1.0080           0
    5829 QQQ  365  NMP  N2   NG2R53    -0.098000       14.0070           0
    5830 QQQ  365  NMP  C3   CG3C52    -0.077000       12.0110           0
    5831 QQQ  365  NMP  H4   HGA2       0.090000        1.0080           0
    5832 QQQ  365  NMP  H5   HGA2       0.090000        1.0080           0
    5833 QQQ  365  NMP  C4   CG3C52    -0.233000       12.0110           0
    5834 QQQ  365  NMP  H6   HGA2       0.090000        1.0080           0
    5835 QQQ  365  NMP  H7   HGA2       0.090000        1.0080           0
    5836 QQQ  365  NMP  C5   CG3C52    -0.027000       12.0110           0
    5837 QQQ  365  NMP  H8   HGA2       0.090000        1.0080           0
    5838 QQQ  365  NMP  H9   HGA2       0.090000        1.0080           0
    5839 QQQ  365  NMP  C6   CG2R53     0.286000       12.0110           0
    5840 QQQ  365  NMP  O7   OG2D1     -0.500000       15.9990           0
    5841 QQQ  366  NMP  C1   CG331     -0.161000       12.0110           0
    5842 QQQ  366  NMP  H1   HGA3       0.090000        1.0080           0
    5843 QQQ  366  NMP  H2   HGA3       0.090000        1.0080           0
    5844 QQQ  366  NMP  H3   HGA3       0.090000        1.0080           0
    5845 QQQ  366  NMP  N2   NG2R53    -0.098000       14.0070           0
    5846 QQQ  366  NMP  C3   CG3C52    -0.077000       12.0110           0
    5847 QQQ  366  NMP  H4   HGA2       0.090000        1.0080           0
    5848 QQQ  366  NMP  H5   HGA2       0.090000        1.0080           0
    5849 QQQ  366  NMP  C4   CG3C52    -0.233000       12.0110           0
    5850 QQQ  366  NMP  H6   HGA2       0.090000        1.0080           0
    5851 QQQ  366  NMP  H7   HGA2       0.090000        1.0080           0
    5852 QQQ  366  NMP  C5   CG3C52    -0.027000       12.0110           0
    5853 QQQ  366  NMP  H8   HGA2       0.090000        1.0080           0
    5854 QQQ  366  NMP  H9   HGA2       0.090000        1.0080           0
    5855 QQQ  366  NMP  C6   CG2R53     0.286000       12.0110           0
    5856 QQQ  366  NMP  O7   OG2D1     -0.500000       15.9990           0
    5857 QQQ  367  NMP  C1   CG331     -0.161000       12.0110           0
    5858 QQQ  367  NMP  H1   HGA3       0.090000        1.0080           0
    5859 QQQ  367  NMP  H2   HGA3       0.090000        1.0080           0
    5860 QQQ  367  NMP  H3   HGA3       0.090000        1.0080           0
    5861 QQQ  367  NMP  N2   NG2R53    -0.098000       14.0070           0
    5862 QQQ  367  NMP  C3   CG3C52    -0.077000       12.0110           0
    5863 QQQ  367  NMP  H4   HGA2       0.090000        1.0080           0
    5864 QQQ  367  NMP  H5   HGA2       0.090000        1.0080           0
    5865 QQQ  367  NMP  C4   CG3C52    -0.233000       12.0110           0
    5866 QQQ  367  NMP  H6   HGA2       0.090000        1.0080           0
    5867 QQQ  367  NMP  H7   HGA2       0.090000        1.0080           0
    5868 QQQ  367  NMP  C5   CG3C52    -0.027000       12.0110           0
    5869 QQQ  367  NMP  H8   HGA2       0.090000        1.0080           0
    5870 QQQ  367  NMP  H9   HGA2       0.090000        1.0080           0
    5871 QQQ  367  NMP  C6   CG2R53     0.286000       12.0110           0
    5872 QQQ  367  NMP  O7   OG2D1     -0.500000       15.9990           0
    5873 QQQ  368  NMP  C1   CG331     -0.161000       12.0110           0
    5874 QQQ  368  NMP  H1   HGA3       0.090000        1.0080           0
    5875 QQQ  368  NMP  H2   HGA3       0.090000        1.0080           0
    5876 QQQ  368  NMP  H3   HGA3       0.090000        1.0080           0
    5877 QQQ  368  NMP  N2   NG2R53    -0.098000       14.0070           0
    5878 QQQ  368  NMP  C3   CG3C52    -0.077000       12.0110           0
    5879 QQQ  368  NMP  H4   HGA2       0.090000        1.0080           0
    5880 QQQ  368  NMP  H5   HGA2       0.090000        1.0080           0
    5881 QQQ  368  NMP  C4   CG3C52    -0.233000       12.0110           0
    5882 QQQ  368  NMP  H6   HGA2       0.090000        1.0080           0
    5883 QQQ  368  NMP  H7   HGA2       0.090000        1.0080           0
    5884 QQQ  368  NMP  C5   CG3C52    -0.027000       12.0110           0
    5885 QQQ  368  NMP  H8   HGA2       0.090000        1.0080           0
    5886 QQQ  368  NMP  H9   HGA2       0.090000        1.0080           0
    5887 QQQ  368  NMP  C6   CG2R53     0.286000       12.0110           0
    5888 QQQ  368  NMP  O7   OG2D1     -0.500000       15.9990           0
    5889 QQQ  369  NMP  C1   CG331     -0.161000       12.0110           0
    5890 QQQ  369  NMP  H1   HGA3       0.090000        1.0080           0
    5891 QQQ  369  NMP  H2   HGA3       0.090000        1.0080           0
    5892 QQQ  369  NMP  H3   HGA3       0.090000        1.0080           0
    5893 QQQ  369  NMP  N2   NG2R53    -0.098000       14.0070           0
    5894 QQQ  369  NMP  C3   CG3C52    -0.077000       12.0110           0
    5895 QQQ  369  NMP  H4   HGA2       0.090000        1.0080           0
    5896 QQQ  369  NMP  H5   HGA2       0.090000        1.0080           0
    5897 QQQ  369  NMP  C4   CG3C52    -0.233000       12.0110           0
    5898 QQQ  369  NMP  H6   HGA2       0.090000        1.0080           0
    5899 QQQ  369  NMP  H7   HGA2       0.090000        1.0080           0
    5900 QQQ  369  NMP  C5   CG3C52    -0.027000       12.0110           0
    5901 QQQ  369  NMP  H8   HGA2       0.090000        1.0080           0
    5902 QQQ  369  NMP  H9   HGA2       0.090000        1.0080           0
    5903 QQQ  369  NMP  C6   CG2R53     0.286000       12.0110           0
    5904 QQQ  369  NMP  O7   OG2D1     -0.500000       15.9990           0
    5905 QQQ  370  NMP  C1   CG331     -0.161000       12.0110           0
    5906 QQQ  370  NMP  H1   HGA3       0.090000        1.0080           0
    5907 QQQ  370  NMP  H2   HGA3       0.090000        1.0080           0
    5908 QQQ  370  NMP  H3   HGA3       0.090000        1.0080           0
    5909 QQQ  370  NMP  N2   NG2R53    -0.098000       14.0070           0
    5910 QQQ  370  NMP  C3   CG3C52    -0.077000       12.0110           0
    5911 QQQ  370  NMP  H4   HGA2       0.090000        1.0080           0
    5912 QQQ  370  NMP  H5   HGA2       0.090000        1.0080           0
    5913 QQQ  370  NMP  C4   CG3C52    -0.233000       12.0110           0
    5914 QQQ  370  NMP  H6   HGA2       0.090000        1.0080           0
    5915 QQQ  370  NMP  H7   HGA2       0.090000        1.0080           0
    5916 QQQ  370  NMP  C5   CG3C52    -0.027000       12.0110           0
    5917 QQQ  370  NMP  H8   HGA2       0.090000        1.0080           0
    5918 QQQ  370  NMP  H9   HGA2       0.090000        1.0080           0
    5919 QQQ  370  NMP  C6   CG2R53     0.286000       12.0110           0
    5920 QQQ  370  NMP  O7   OG2D1     -0.500000       15.9990           0
    5921 QQQ  371  NMP  C1   CG331     -0.161000       12.0110           0
    5922 QQQ  371  NMP  H1   HGA3       0.090000        1.0080           0
    5923 QQQ  371  NMP  H2   HGA3       0.090000        1.0080           0
    5924 QQQ  371  NMP  H3   HGA3       0.090000        1.0080           0
    5925 QQQ  371  NMP  N2   NG2R53    -0.098000       14.0070           0
    5926 QQQ  371  NMP  C3   CG3C52    -0.077000       12.0110           0
    5927 QQQ  371  NMP  H4   HGA2       0.090000        1.0080           0
    5928 QQQ  371  NMP  H5   HGA2       0.090000        1.0080           0
    5929 QQQ  371  NMP  C4   CG3C52    -0.233000       12.0110           0
    5930 QQQ  371  NMP  H6   HGA2       0.090000        1.0080           0
    5931 QQQ  371  NMP  H7   HGA2       0.090000        1.0080           0
    5932 QQQ  371  NMP  C5   CG3C52    -0.027000       12.0110           0
    5933 QQQ  371  NMP  H8   HGA2       0.090000        1.0080           0
    5934 QQQ  371  NMP  H9   HGA2       0.090000        1.0080           0
    5935 QQQ  371  NMP  C6   CG2R53     0.286000       12.0110           0
    5936 QQQ  371  NMP  O7   OG2D1     -0.500000       15.9990           0
    5937 QQQ  372  NMP  C1   CG331     -0.161000       12.0110           0
    5938 QQQ  372  NMP  H1   HGA3       0.090000        1.0080           0
    5939 QQQ  372  NMP  H2   HGA3       0.090000        1.0080           0
    5940 QQQ  372  NMP  H3   HGA3       0.090000        1.0080           0
    5941 QQQ  372  NMP  N2   NG2R53    -0.098000       14.0070           0
    5942 QQQ  372  NMP  C3   CG3C52    -0.077000       12.0110           0
    5943 QQQ  372  NMP  H4   HGA2       0.090000        1.0080           0
    5944 QQQ  372  NMP  H5   HGA2       0.090000        1.0080           0
    5945 QQQ  372  NMP  C4   CG3C52    -0.233000       12.0110           0
    5946 QQQ  372  NMP  H6   HGA2       0.090000        1.0080           0
    5947 QQQ  372  NMP  H7   HGA2       0.090000        1.0080           0
    5948 QQQ  372  NMP  C5   CG3C52    -0.027000       12.0110           0
    5949 QQQ  372  NMP  H8   HGA2       0.090000        1.0080           0
    5950 QQQ  372  NMP  H9   HGA2       0.090000        1.0080           0
    5951 QQQ  372  NMP  C6   CG2R53     0.286000       12.0110           0
    5952 QQQ  372  NMP  O7   OG2D1     -0.500000       15.9990           0
    5953 QQQ  373  NMP  C1   CG331     -0.161000       12.0110           0
    5954 QQQ  373  NMP  H1   HGA3       0.090000        1.0080           0
    5955 QQQ  373  NMP  H2   HGA3       0.090000        1.0080           0
    5956 QQQ  373  NMP  H3   HGA3       0.090000        1.0080           0
    5957 QQQ  373  NMP  N2   NG2R53    -0.098000       14.0070           0
    5958 QQQ  373  NMP  C3   CG3C52    -0.077000       12.0110           0
    5959 QQQ  373  NMP  H4   HGA2       0.090000        1.0080           0
    5960 QQQ  373  NMP  H5   HGA2       0.090000        1.0080           0
    5961 QQQ  373  NMP  C4   CG3C52    -0.233000       12.0110           0
    5962 QQQ  373  NMP  H6   HGA2       0.090000        1.0080           0
    5963 QQQ  373  NMP  H7   HGA2       0.090000        1.0080           0
    5964 QQQ  373  NMP  C5   CG3C52    -0.027000       12.0110           0
    5965 QQQ  373  NMP  H8   HGA2       0.090000        1.0080           0
    5966 QQQ  373  NMP  H9   HGA2       0.090000        1.0080           0
    5967 QQQ  373  NMP  C6   CG2R53     0.286000       12.0110           0
    5968 QQQ  373  NMP  O7   OG2D1     -0.500000       15.9990           0
    5969 QQQ  374  NMP  C1   CG331     -0.161000       12.0110           0
    5970 QQQ  374  NMP  H1   HGA3       0.090000        1.0080           0
    5971 QQQ  374  NMP  H2   HGA3       0.090000        1.0080           0
    5972 QQQ  374  NMP  H3   HGA3       0.090000        1.0080           0
    5973 QQQ  374  NMP  N2   NG2R53    -0.098000       14.0070           0
    5974 QQQ  374  NMP  C3   CG3C52    -0.077000       12.0110           0
    5975 QQQ  374  NMP  H4   HGA2       0.090000        1.0080           0
    5976 QQQ  374  NMP  H5   HGA2       0.090000        1.0080           0
    5977 QQQ  374  NMP  C4   CG3C52    -0.233000       12.0110           0
    5978 QQQ  374  NMP  H6   HGA2       0.090000        1.0080           0
    5979 QQQ  374  NMP  H7   HGA2       0.090000        1.0080           0
    5980 QQQ  374  NMP  C5   CG3C52    -0.027000       12.0110           0
    5981 QQQ  374  NMP  H8   HGA2       0.090000        1.0080           0
    5982 QQQ  374  NMP  H9   HGA2       0.090000        1.0080           0
    5983 QQQ  374  NMP  C6   CG2R53     0.286000       12.0110           0
    5984 QQQ  374  NMP  O7   OG2D1     -0.500000       15.9990           0
    5985 QQQ  375  NMP  C1   CG331     -0.161000       12.0110           0
    5986 QQQ  375  NMP  H1   HGA3       0.090000        1.0080           0
    5987 QQQ  375  NMP  H2   HGA3       0.090000        1.0080           0
    5988 QQQ  375  NMP  H3   HGA3       0.090000        1.0080           0
    5989 QQQ  375  NMP  N2   NG2R53    -0.098000       14.0070           0
    5990 QQQ  375  NMP  C3   CG3C52    -0.077000       12.0110           0
    5991 QQQ  375  NMP  H4   HGA2       0.090000        1.0080           0
    5992 QQQ  375  NMP  H5   HGA2       0.090000        1.0080           0
    5993 QQQ  375  NMP  C4   CG3C52    -0.233000       12.0110           0
    5994 QQQ  375  NMP  H6   HGA2       0.090000        1.0080           0
    5995 QQQ  375  NMP  H7   HGA2       0.090000        1.0080           0
    5996 QQQ  375  NMP  C5   CG3C52    -0.027000       12.0110           0
    5997 QQQ  375  NMP  H8   HGA2       0.090000        1.0080           0
    5998 QQQ  375  NMP  H9   HGA2       0.090000        1.0080           0
    5999 QQQ  375  NMP  C6   CG2R53     0.286000       12.0110           0
    6000 QQQ  375  NMP  O7   OG2D1     -0.500000       15.9990           0
    6001 QQQ  376  NMP  C1   CG331     -0.161000       12.0110           0
    6002 QQQ  376  NMP  H1   HGA3       0.090000        1.0080           0
    6003 QQQ  376  NMP  H2   HGA3       0.090000        1.0080           0
    6004 QQQ  376  NMP  H3   HGA3       0.090000        1.0080           0
    6005 QQQ  376  NMP  N2   NG2R53    -0.098000       14.0070           0
    6006 QQQ  376  NMP  C3   CG3C52    -0.077000       12.0110           0
    6007 QQQ  376  NMP  H4   HGA2       0.090000        1.0080           0
    6008 QQQ  376  NMP  H5   HGA2       0.090000        1.0080           0
    6009 QQQ  376  NMP  C4   CG3C52    -0.233000       12.0110           0
    6010 QQQ  376  NMP  H6   HGA2       0.090000        1.0080           0
    6011 QQQ  376  NMP  H7   HGA2       0.090000        1.0080           0
    6012 QQQ  376  NMP  C5   CG3C52    -0.027000       12.0110           0
    6013 QQQ  376  NMP  H8   HGA2       0.090000        1.0080           0
    6014 QQQ  376  NMP  H9   HGA2       0.090000        1.0080           0
    6015 QQQ  376  NMP  C6   CG2R53     0.286000       12.0110           0
    6016 QQQ  376  NMP  O7   OG2D1     -0.500000       15.9990           0
    6017 QQQ  377  NMP  C1   CG331     -0.161000       12.0110           0
    6018 QQQ  377  NMP  H1   HGA3       0.090000        1.0080           0
    6019 QQQ  377  NMP  H2   HGA3       0.090000        1.0080           0
    6020 QQQ  377  NMP  H3   HGA3       0.090000        1.0080           0
    6021 QQQ  377  NMP  N2   NG2R53    -0.098000       14.0070           0
    6022 QQQ  377  NMP  C3   CG3C52    -0.077000       12.0110           0
    6023 QQQ  377  NMP  H4   HGA2       0.090000        1.0080           0
    6024 QQQ  377  NMP  H5   HGA2       0.090000        1.0080           0
    6025 QQQ  377  NMP  C4   CG3C52    -0.233000       12.0110           0
    6026 QQQ  377  NMP  H6   HGA2       0.090000        1.0080           0
    6027 QQQ  377  NMP  H7   HGA2       0.090000        1.0080           0
    6028 QQQ  377  NMP  C5   CG3C52    -0.027000       12.0110           0
    6029 QQQ  377  NMP  H8   HGA2       0.090000        1.0080           0
    6030 QQQ  377  NMP  H9   HGA2       0.090000        1.0080           0
    6031 QQQ  377  NMP  C6   CG2R53     0.286000       12.0110           0
    6032 QQQ  377  NMP  O7   OG2D1     -0.500000       15.9990           0
    6033 QQQ  378  NMP  C1   CG331     -0.161000       12.0110           0
    6034 QQQ  378  NMP  H1   HGA3       0.090000        1.0080           0
    6035 QQQ  378  NMP  H2   HGA3       0.090000        1.0080           0
    6036 QQQ  378  NMP  H3   HGA3       0.090000        1.0080           0
    6037 QQQ  378  NMP  N2   NG2R53    -0.098000       14.0070           0
    6038 QQQ  378  NMP  C3   CG3C52    -0.077000       12.0110           0
    6039 QQQ  378  NMP  H4   HGA2       0.090000        1.0080           0
    6040 QQQ  378  NMP  H5   HGA2       0.090000        1.0080           0
    6041 QQQ  378  NMP  C4   CG3C52    -0.233000       12.0110           0
    6042 QQQ  378  NMP  H6   HGA2       0.090000        1.0080           0
    6043 QQQ  378  NMP  H7   HGA2       0.090000        1.0080           0
    6044 QQQ  378  NMP  C5   CG3C52    -0.027000       12.0110           0
    6045 QQQ  378  NMP  H8   HGA2       0.090000        1.0080           0
    6046 QQQ  378  NMP  H9   HGA2       0.090000        1.0080           0
    6047 QQQ  378  NMP  C6   CG2R53     0.286000       12.0110           0
    6048 QQQ  378  NMP  O7   OG2D1     -0.500000       15.9990           0
    6049 QQQ  379  NMP  C1   CG331     -0.161000       12.0110           0
    6050 QQQ  379  NMP  H1   HGA3       0.090000        1.0080           0
    6051 QQQ  379  NMP  H2   HGA3       0.090000        1.0080           0
    6052 QQQ  379  NMP  H3   HGA3       0.090000        1.0080           0
    6053 QQQ  379  NMP  N2   NG2R53    -0.098000       14.0070           0
    6054 QQQ  379  NMP  C3   CG3C52    -0.077000       12.0110           0
    6055 QQQ  379  NMP  H4   HGA2       0.090000        1.0080           0
    6056 QQQ  379  NMP  H5   HGA2       0.090000        1.0080           0
    6057 QQQ  379  NMP  C4   CG3C52    -0.233000       12.0110           0
    6058 QQQ  379  NMP  H6   HGA2       0.090000        1.0080           0
    6059 QQQ  379  NMP  H7   HGA2       0.090000        1.0080           0
    6060 QQQ  379  NMP  C5   CG3C52    -0.027000       12.0110           0
    6061 QQQ  379  NMP  H8   HGA2       0.090000        1.0080           0
    6062 QQQ  379  NMP  H9   HGA2       0.090000        1.0080           0
    6063 QQQ  379  NMP  C6   CG2R53     0.286000       12.0110           0
    6064 QQQ  379  NMP  O7   OG2D1     -0.500000       15.9990           0
    6065 QQQ  380  NMP  C1   CG331     -0.161000       12.0110           0
    6066 QQQ  380  NMP  H1   HGA3       0.090000        1.0080           0
    6067 QQQ  380  NMP  H2   HGA3       0.090000        1.0080           0
    6068 QQQ  380  NMP  H3   HGA3       0.090000        1.0080           0
    6069 QQQ  380  NMP  N2   NG2R53    -0.098000       14.0070           0
    6070 QQQ  380  NMP  C3   CG3C52    -0.077000       12.0110           0
    6071 QQQ  380  NMP  H4   HGA2       0.090000        1.0080           0
    6072 QQQ  380  NMP  H5   HGA2       0.090000        1.0080           0
    6073 QQQ  380  NMP  C4   CG3C52    -0.233000       12.0110           0
    6074 QQQ  380  NMP  H6   HGA2       0.090000        1.0080           0
    6075 QQQ  380  NMP  H7   HGA2       0.090000        1.0080           0
    6076 QQQ  380  NMP  C5   CG3C52    -0.027000       12.0110           0
    6077 QQQ  380  NMP  H8   HGA2       0.090000        1.0080           0
    6078 QQQ  380  NMP  H9   HGA2       0.090000        1.0080           0
    6079 QQQ  380  NMP  C6   CG2R53     0.286000       12.0110           0
    6080 QQQ  380  NMP  O7   OG2D1     -0.500000       15.9990           0
    6081 QQQ  381  NMP  C1   CG331     -0.161000       12.0110           0
    6082 QQQ  381  NMP  H1   HGA3       0.090000        1.0080           0
    6083 QQQ  381  NMP  H2   HGA3       0.090000        1.0080           0
    6084 QQQ  381  NMP  H3   HGA3       0.090000        1.0080           0
    6085 QQQ  381  NMP  N2   NG2R53    -0.098000       14.0070           0
    6086 QQQ  381  NMP  C3   CG3C52    -0.077000       12.0110           0
    6087 QQQ  381  NMP  H4   HGA2       0.090000        1.0080           0
    6088 QQQ  381  NMP  H5   HGA2       0.090000        1.0080           0
    6089 QQQ  381  NMP  C4   CG3C52    -0.233000       12.0110           0
    6090 QQQ  381  NMP  H6   HGA2       0.090000        1.0080           0
    6091 QQQ  381  NMP  H7   HGA2       0.090000        1.0080           0
    6092 QQQ  381  NMP  C5   CG3C52    -0.027000       12.0110           0
    6093 QQQ  381  NMP  H8   HGA2       0.090000        1.0080           0
    6094 QQQ  381  NMP  H9   HGA2       0.090000        1.0080           0
    6095 QQQ  381  NMP  C6   CG2R53     0.286000       12.0110           0
    6096 QQQ  381  NMP  O7   OG2D1     -0.500000       15.9990           0
    6097 QQQ  382  NMP  C1   CG331     -0.161000       12.0110           0
    6098 QQQ  382  NMP  H1   HGA3       0.090000        1.0080           0
    6099 QQQ  382  NMP  H2   HGA3       0.090000        1.0080           0
    6100 QQQ  382  NMP  H3   HGA3       0.090000        1.0080           0
    6101 QQQ  382  NMP  N2   NG2R53    -0.098000       14.0070           0
    6102 QQQ  382  NMP  C3   CG3C52    -0.077000       12.0110           0
    6103 QQQ  382  NMP  H4   HGA2       0.090000        1.0080           0
    6104 QQQ  382  NMP  H5   HGA2       0.090000        1.0080           0
    6105 QQQ  382  NMP  C4   CG3C52    -0.233000       12.0110           0
    6106 QQQ  382  NMP  H6   HGA2       0.090000        1.0080           0
    6107 QQQ  382  NMP  H7   HGA2       0.090000        1.0080           0
    6108 QQQ  382  NMP  C5   CG3C52    -0.027000       12.0110           0
    6109 QQQ  382  NMP  H8   HGA2       0.090000        1.0080           0
    6110 QQQ  382  NMP  H9   HGA2       0.090000        1.0080           0
    6111 QQQ  382  NMP  C6   CG2R53     0.286000       12.0110           0
    6112 QQQ  382  NMP  O7   OG2D1     -0.500000       15.9990           0
    6113 QQQ  383  NMP  C1   CG331     -0.161000       12.0110           0
    6114 QQQ  383  NMP  H1   HGA3       0.090000        1.0080           0
    6115 QQQ  383  NMP  H2   HGA3       0.090000        1.0080           0
    6116 QQQ  383  NMP  H3   HGA3       0.090000        1.0080           0
    6117 QQQ  383  NMP  N2   NG2R53    -0.098000       14.0070           0
    6118 QQQ  383  NMP  C3   CG3C52    -0.077000       12.0110           0
    6119 QQQ  383  NMP  H4   HGA2       0.090000        1.0080           0
    6120 QQQ  383  NMP  H5   HGA2       0.090000        1.0080           0
    6121 QQQ  383  NMP  C4   CG3C52    -0.233000       12.0110           0
    6122 QQQ  383  NMP  H6   HGA2       0.090000        1.0080           0
    6123 QQQ  383  NMP  H7   HGA2       0.090000        1.0080           0
    6124 QQQ  383  NMP  C5   CG3C52    -0.027000       12.0110           0
    6125 QQQ  383  NMP  H8   HGA2       0.090000        1.0080           0
    6126 QQQ  383  NMP  H9   HGA2       0.090000        1.0080           0
    6127 QQQ  383  NMP  C6   CG2R53     0.286000       12.0110           0
    6128 QQQ  383  NMP  O7   OG2D1     -0.500000       15.9990           0
    6129 QQQ  384  NMP  C1   CG331     -0.161000       12.0110           0
    6130 QQQ  384  NMP  H1   HGA3       0.090000        1.0080           0
    6131 QQQ  384  NMP  H2   HGA3       0.090000        1.0080           0
    6132 QQQ  384  NMP  H3   HGA3       0.090000        1.0080           0
    6133 QQQ  384  NMP  N2   NG2R53    -0.098000       14.0070           0
    6134 QQQ  384  NMP  C3   CG3C52    -0.077000       12.0110           0
    6135 QQQ  384  NMP  H4   HGA2       0.090000        1.0080           0
    6136 QQQ  384  NMP  H5   HGA2       0.090000        1.0080           0
    6137 QQQ  384  NMP  C4   CG3C52    -0.233000       12.0110           0
    6138 QQQ  384  NMP  H6   HGA2       0.090000        1.0080           0
    6139 QQQ  384  NMP  H7   HGA2       0.090000        1.0080           0
    6140 QQQ  384  NMP  C5   CG3C52    -0.027000       12.0110           0
    6141 QQQ  384  NMP  H8   HGA2       0.090000        1.0080           0
    6142 QQQ  384  NMP  H9   HGA2       0.090000        1.0080           0
    6143 QQQ  384  NMP  C6   CG2R53     0.286000       12.0110           0
    6144 QQQ  384  NMP  O7   OG2D1     -0.500000       15.9990           0
    6145 QQQ  385  NMP  C1   CG331     -0.161000       12.0110           0
    6146 QQQ  385  NMP  H1   HGA3       0.090000        1.0080           0
    6147 QQQ  385  NMP  H2   HGA3       0.090000        1.0080           0
    6148 QQQ  385  NMP  H3   HGA3       0.090000        1.0080           0
    6149 QQQ  385  NMP  N2   NG2R53    -0.098000       14.0070           0
    6150 QQQ  385  NMP  C3   CG3C52    -0.077000       12.0110           0
    6151 QQQ  385  NMP  H4   HGA2       0.090000        1.0080           0
    6152 QQQ  385  NMP  H5   HGA2       0.090000        1.0080           0
    6153 QQQ  385  NMP  C4   CG3C52    -0.233000       12.0110           0
    6154 QQQ  385  NMP  H6   HGA2       0.090000        1.0080           0
    6155 QQQ  385  NMP  H7   HGA2       0.090000        1.0080           0
    6156 QQQ  385  NMP  C5   CG3C52    -0.027000       12.0110           0
    6157 QQQ  385  NMP  H8   HGA2       0.090000        1.0080           0
    6158 QQQ  385  NMP  H9   HGA2       0.090000        1.0080           0
    6159 QQQ  385  NMP  C6   CG2R53     0.286000       12.0110           0
    6160 QQQ  385  NMP  O7   OG2D1     -0.500000       15.9990           0
    6161 QQQ  386  NMP  C1   CG331     -0.161000       12.0110           0
    6162 QQQ  386  NMP  H1   HGA3       0.090000        1.0080           0
    6163 QQQ  386  NMP  H2   HGA3       0.090000        1.0080           0
    6164 QQQ  386  NMP  H3   HGA3       0.090000        1.0080           0
    6165 QQQ  386  NMP  N2   NG2R53    -0.098000       14.0070           0
    6166 QQQ  386  NMP  C3   CG3C52    -0.077000       12.0110           0
    6167 QQQ  386  NMP  H4   HGA2       0.090000        1.0080           0
    6168 QQQ  386  NMP  H5   HGA2       0.090000        1.0080           0
    6169 QQQ  386  NMP  C4   CG3C52    -0.233000       12.0110           0
    6170 QQQ  386  NMP  H6   HGA2       0.090000        1.0080           0
    6171 QQQ  386  NMP  H7   HGA2       0.090000        1.0080           0
    6172 QQQ  386  NMP  C5   CG3C52    -0.027000       12.0110           0
    6173 QQQ  386  NMP  H8   HGA2       0.090000        1.0080           0
    6174 QQQ  386  NMP  H9   HGA2       0.090000        1.0080           0
    6175 QQQ  386  NMP  C6   CG2R53     0.286000       12.0110           0
    6176 QQQ  386  NMP  O7   OG2D1     -0.500000       15.9990           0
    6177 QQQ  387  NMP  C1   CG331     -0.161000       12.0110           0
    6178 QQQ  387  NMP  H1   HGA3       0.090000        1.0080           0
    6179 QQQ  387  NMP  H2   HGA3       0.090000        1.0080           0
    6180 QQQ  387  NMP  H3   HGA3       0.090000        1.0080           0
    6181 QQQ  387  NMP  N2   NG2R53    -0.098000       14.0070           0
    6182 QQQ  387  NMP  C3   CG3C52    -0.077000       12.0110           0
    6183 QQQ  387  NMP  H4   HGA2       0.090000        1.0080           0
    6184 QQQ  387  NMP  H5   HGA2       0.090000        1.0080           0
    6185 QQQ  387  NMP  C4   CG3C52    -0.233000       12.0110           0
    6186 QQQ  387  NMP  H6   HGA2       0.090000        1.0080           0
    6187 QQQ  387  NMP  H7   HGA2       0.090000        1.0080           0
    6188 QQQ  387  NMP  C5   CG3C52    -0.027000       12.0110           0
    6189 QQQ  387  NMP  H8   HGA2       0.090000        1.0080           0
    6190 QQQ  387  NMP  H9   HGA2       0.090000        1.0080           0
    6191 QQQ  387  NMP  C6   CG2R53     0.286000       12.0110           0
    6192 QQQ  387  NMP  O7   OG2D1     -0.500000       15.9990           0
    6193 QQQ  388  NMP  C1   CG331     -0.161000       12.0110           0
    6194 QQQ  388  NMP  H1   HGA3       0.090000        1.0080           0
    6195 QQQ  388  NMP  H2   HGA3       0.090000        1.0080           0
    6196 QQQ  388  NMP  H3   HGA3       0.090000        1.0080           0
    6197 QQQ  388  NMP  N2   NG2R53    -0.098000       14.0070           0
    6198 QQQ  388  NMP  C3   CG3C52    -0.077000       12.0110           0
    6199 QQQ  388  NMP  H4   HGA2       0.090000        1.0080           0
    6200 QQQ  388  NMP  H5   HGA2       0.090000        1.0080           0
    6201 QQQ  388  NMP  C4   CG3C52    -0.233000       12.0110           0
    6202 QQQ  388  NMP  H6   HGA2       0.090000        1.0080           0
    6203 QQQ  388  NMP  H7   HGA2       0.090000        1.0080           0
    6204 QQQ  388  NMP  C5   CG3C52    -0.027000       12.0110           0
    6205 QQQ  388  NMP  H8   HGA2       0.090000        1.0080           0
    6206 QQQ  388  NMP  H9   HGA2       0.090000        1.0080           0
    6207 QQQ  388  NMP  C6   CG2R53     0.286000       12.0110           0
    6208 QQQ  388  NMP  O7   OG2D1     -0.500000       15.9990           0
    6209 QQQ  389  NMP  C1   CG331     -0.161000       12.0110           0
    6210 QQQ  389  NMP  H1   HGA3       0.090000        1.0080           0
    6211 QQQ  389  NMP  H2   HGA3       0.090000        1.0080           0
    6212 QQQ  389  NMP  H3   HGA3       0.090000        1.0080           0
    6213 QQQ  389  NMP  N2   NG2R53    -0.098000       14.0070           0
    6214 QQQ  389  NMP  C3   CG3C52    -0.077000       12.0110           0
    6215 QQQ  389  NMP  H4   HGA2       0.090000        1.0080           0
    6216 QQQ  389  NMP  H5   HGA2       0.090000        1.0080           0
    6217 QQQ  389  NMP  C4   CG3C52    -0.233000       12.0110           0
    6218 QQQ  389  NMP  H6   HGA2       0.090000        1.0080           0
    6219 QQQ  389  NMP  H7   HGA2       0.090000        1.0080           0
    6220 QQQ  389  NMP  C5   CG3C52    -0.027000       12.0110           0
    6221 QQQ  389  NMP  H8   HGA2       0.090000        1.0080           0
    6222 QQQ  389  NMP  H9   HGA2       0.090000        1.0080           0
    6223 QQQ  389  NMP  C6   CG2R53     0.286000       12.0110           0
    6224 QQQ  389  NMP  O7   OG2D1     -0.500000       15.9990           0
    6225 QQQ  390  NMP  C1   CG331     -0.161000       12.0110           0
    6226 QQQ  390  NMP  H1   HGA3       0.090000        1.0080           0
    6227 QQQ  390  NMP  H2   HGA3       0.090000        1.0080           0
    6228 QQQ  390  NMP  H3   HGA3       0.090000        1.0080           0
    6229 QQQ  390  NMP  N2   NG2R53    -0.098000       14.0070           0
    6230 QQQ  390  NMP  C3   CG3C52    -0.077000       12.0110           0
    6231 QQQ  390  NMP  H4   HGA2       0.090000        1.0080           0
    6232 QQQ  390  NMP  H5   HGA2       0.090000        1.0080           0
    6233 QQQ  390  NMP  C4   CG3C52    -0.233000       12.0110           0
    6234 QQQ  390  NMP  H6   HGA2       0.090000        1.0080           0
    6235 QQQ  390  NMP  H7   HGA2       0.090000        1.0080           0
    6236 QQQ  390  NMP  C5   CG3C52    -0.027000       12.0110           0
    6237 QQQ  390  NMP  H8   HGA2       0.090000        1.0080           0
    6238 QQQ  390  NMP  H9   HGA2       0.090000        1.0080           0
    6239 QQQ  390  NMP  C6   CG2R53     0.286000       12.0110           0
    6240 QQQ  390  NMP  O7   OG2D1     -0.500000       15.9990           0
    6241 QQQ  391  NMP  C1   CG331     -0.161000       12.0110           0
    6242 QQQ  391  NMP  H1   HGA3       0.090000        1.0080           0
    6243 QQQ  391  NMP  H2   HGA3       0.090000        1.0080           0
    6244 QQQ  391  NMP  H3   HGA3       0.090000        1.0080           0
    6245 QQQ  391  NMP  N2   NG2R53    -0.098000       14.0070           0
    6246 QQQ  391  NMP  C3   CG3C52    -0.077000       12.0110           0
    6247 QQQ  391  NMP  H4   HGA2       0.090000        1.0080           0
    6248 QQQ  391  NMP  H5   HGA2       0.090000        1.0080           0
    6249 QQQ  391  NMP  C4   CG3C52    -0.233000       12.0110           0
    6250 QQQ  391  NMP  H6   HGA2       0.090000        1.0080           0
    6251 QQQ  391  NMP  H7   HGA2       0.090000        1.0080           0
    6252 QQQ  391  NMP  C5   CG3C52    -0.027000       12.0110           0
    6253 QQQ  391  NMP  H8   HGA2       0.090000        1.0080           0
    6254 QQQ  391  NMP  H9   HGA2       0.090000        1.0080           0
    6255 QQQ  391  NMP  C6   CG2R53     0.286000       12.0110           0
    6256 QQQ  391  NMP  O7   OG2D1     -0.500000       15.9990           0
    6257 QQQ  392  NMP  C1   CG331     -0.161000       12.0110           0
    6258 QQQ  392  NMP  H1   HGA3       0.090000        1.0080           0
    6259 QQQ  392  NMP  H2   HGA3       0.090000        1.0080           0
    6260 QQQ  392  NMP  H3   HGA3       0.090000        1.0080           0
    6261 QQQ  392  NMP  N2   NG2R53    -0.098000       14.0070           0
    6262 QQQ  392  NMP  C3   CG3C52    -0.077000       12.0110           0
    6263 QQQ  392  NMP  H4   HGA2       0.090000        1.0080           0
    6264 QQQ  392  NMP  H5   HGA2       0.090000        1.0080           0
    6265 QQQ  392  NMP  C4   CG3C52    -0.233000       12.0110           0
    6266 QQQ  392  NMP  H6   HGA2       0.090000        1.0080           0
    6267 QQQ  392  NMP  H7   HGA2       0.090000        1.0080           0
    6268 QQQ  392  NMP  C5   CG3C52    -0.027000       12.0110           0
    6269 QQQ  392  NMP  H8   HGA2       0.090000        1.0080           0
    6270 QQQ  392  NMP  H9   HGA2       0.090000        1.0080           0
    6271 QQQ  392  NMP  C6   CG2R53     0.286000       12.0110           0
    6272 QQQ  392  NMP  O7   OG2D1     -0.500000       15.9990           0
    6273 QQQ  393  NMP  C1   CG331     -0.161000       12.0110           0
    6274 QQQ  393  NMP  H1   HGA3       0.090000        1.0080           0
    6275 QQQ  393  NMP  H2   HGA3       0.090000        1.0080           0
    6276 QQQ  393  NMP  H3   HGA3       0.090000        1.0080           0
    6277 QQQ  393  NMP  N2   NG2R53    -0.098000       14.0070           0
    6278 QQQ  393  NMP  C3   CG3C52    -0.077000       12.0110           0
    6279 QQQ  393  NMP  H4   HGA2       0.090000        1.0080           0
    6280 QQQ  393  NMP  H5   HGA2       0.090000        1.0080           0
    6281 QQQ  393  NMP  C4   CG3C52    -0.233000       12.0110           0
    6282 QQQ  393  NMP  H6   HGA2       0.090000        1.0080           0
    6283 QQQ  393  NMP  H7   HGA2       0.090000        1.0080           0
    6284 QQQ  393  NMP  C5   CG3C52    -0.027000       12.0110           0
    6285 QQQ  393  NMP  H8   HGA2       0.090000        1.0080           0
    6286 QQQ  393  NMP  H9   HGA2       0.090000        1.0080           0
    6287 QQQ  393  NMP  C6   CG2R53     0.286000       12.0110           0
    6288 QQQ  393  NMP  O7   OG2D1     -0.500000       15.9990           0
    6289 QQQ  394  NMP  C1   CG331     -0.161000       12.0110           0
    6290 QQQ  394  NMP  H1   HGA3       0.090000        1.0080           0
    6291 QQQ  394  NMP  H2   HGA3       0.090000        1.0080           0
    6292 QQQ  394  NMP  H3   HGA3       0.090000        1.0080           0
    6293 QQQ  394  NMP  N2   NG2R53    -0.098000       14.0070           0
    6294 QQQ  394  NMP  C3   CG3C52    -0.077000       12.0110           0
    6295 QQQ  394  NMP  H4   HGA2       0.090000        1.0080           0
    6296 QQQ  394  NMP  H5   HGA2       0.090000        1.0080           0
    6297 QQQ  394  NMP  C4   CG3C52    -0.233000       12.0110           0
    6298 QQQ  394  NMP  H6   HGA2       0.090000        1.0080           0
    6299 QQQ  394  NMP  H7   HGA2       0.090000        1.0080           0
    6300 QQQ  394  NMP  C5   CG3C52    -0.027000       12.0110           0
    6301 QQQ  394  NMP  H8   HGA2       0.090000        1.0080           0
    6302 QQQ  394  NMP  H9   HGA2       0.090000        1.0080           0
    6303 QQQ  394  NMP  C6   CG2R53     0.286000       12.0110           0
    6304 QQQ  394  NMP  O7   OG2D1     -0.500000       15.9990           0
    6305 QQQ  395  NMP  C1   CG331     -0.161000       12.0110           0
    6306 QQQ  395  NMP  H1   HGA3       0.090000        1.0080           0
    6307 QQQ  395  NMP  H2   HGA3       0.090000        1.0080           0
    6308 QQQ  395  NMP  H3   HGA3       0.090000        1.0080           0
    6309 QQQ  395  NMP  N2   NG2R53    -0.098000       14.0070           0
    6310 QQQ  395  NMP  C3   CG3C52    -0.077000       12.0110           0
    6311 QQQ  395  NMP  H4   HGA2       0.090000        1.0080           0
    6312 QQQ  395  NMP  H5   HGA2       0.090000        1.0080           0
    6313 QQQ  395  NMP  C4   CG3C52    -0.233000       12.0110           0
    6314 QQQ  395  NMP  H6   HGA2       0.090000        1.0080           0
    6315 QQQ  395  NMP  H7   HGA2       0.090000        1.0080           0
    6316 QQQ  395  NMP  C5   CG3C52    -0.027000       12.0110           0
    6317 QQQ  395  NMP  H8   HGA2       0.090000        1.0080           0
    6318 QQQ  395  NMP  H9   HGA2       0.090000        1.0080           0
    6319 QQQ  395  NMP  C6   CG2R53     0.286000       12.0110           0
    6320 QQQ  395  NMP  O7   OG2D1     -0.500000       15.9990           0
    6321 QQQ  396  NMP  C1   CG331     -0.161000       12.0110           0
    6322 QQQ  396  NMP  H1   HGA3       0.090000        1.0080           0
    6323 QQQ  396  NMP  H2   HGA3       0.090000        1.0080           0
    6324 QQQ  396  NMP  H3   HGA3       0.090000        1.0080           0
    6325 QQQ  396  NMP  N2   NG2R53    -0.098000       14.0070           0
    6326 QQQ  396  NMP  C3   CG3C52    -0.077000       12.0110           0
    6327 QQQ  396  NMP  H4   HGA2       0.090000        1.0080           0
    6328 QQQ  396  NMP  H5   HGA2       0.090000        1.0080           0
    6329 QQQ  396  NMP  C4   CG3C52    -0.233000       12.0110           0
    6330 QQQ  396  NMP  H6   HGA2       0.090000        1.0080           0
    6331 QQQ  396  NMP  H7   HGA2       0.090000        1.0080           0
    6332 QQQ  396  NMP  C5   CG3C52    -0.027000       12.0110           0
    6333 QQQ  396  NMP  H8   HGA2       0.090000        1.0080           0
    6334 QQQ  396  NMP  H9   HGA2       0.090000        1.0080           0
    6335 QQQ  396  NMP  C6   CG2R53     0.286000       12.0110           0
    6336 QQQ  396  NMP  O7   OG2D1     -0.500000       15.9990           0
    6337 QQQ  397  NMP  C1   CG331     -0.161000       12.0110           0
    6338 QQQ  397  NMP  H1   HGA3       0.090000        1.0080           0
    6339 QQQ  397  NMP  H2   HGA3       0.090000        1.0080           0
    6340 QQQ  397  NMP  H3   HGA3       0.090000        1.0080           0
    6341 QQQ  397  NMP  N2   NG2R53    -0.098000       14.0070           0
    6342 QQQ  397  NMP  C3   CG3C52    -0.077000       12.0110           0
    6343 QQQ  397  NMP  H4   HGA2       0.090000        1.0080           0
    6344 QQQ  397  NMP  H5   HGA2       0.090000        1.0080           0
    6345 QQQ  397  NMP  C4   CG3C52    -0.233000       12.0110           0
    6346 QQQ  397  NMP  H6   HGA2       0.090000        1.0080           0
    6347 QQQ  397  NMP  H7   HGA2       0.090000        1.0080           0
    6348 QQQ  397  NMP  C5   CG3C52    -0.027000       12.0110           0
    6349 QQQ  397  NMP  H8   HGA2       0.090000        1.0080           0
    6350 QQQ  397  NMP  H9   HGA2       0.090000        1.0080           0
    6351 QQQ  397  NMP  C6   CG2R53     0.286000       12.0110           0
    6352 QQQ  397  NMP  O7   OG2D1     -0.500000       15.9990           0
    6353 QQQ  398  NMP  C1   CG331     -0.161000       12.0110           0
    6354 QQQ  398  NMP  H1   HGA3       0.090000        1.0080           0
    6355 QQQ  398  NMP  H2   HGA3       0.090000        1.0080           0
    6356 QQQ  398  NMP  H3   HGA3       0.090000        1.0080           0
    6357 QQQ  398  NMP  N2   NG2R53    -0.098000       14.0070           0
    6358 QQQ  398  NMP  C3   CG3C52    -0.077000       12.0110           0
    6359 QQQ  398  NMP  H4   HGA2       0.090000        1.0080           0
    6360 QQQ  398  NMP  H5   HGA2       0.090000        1.0080           0
    6361 QQQ  398  NMP  C4   CG3C52    -0.233000       12.0110           0
    6362 QQQ  398  NMP  H6   HGA2       0.090000        1.0080           0
    6363 QQQ  398  NMP  H7   HGA2       0.090000        1.0080           0
    6364 QQQ  398  NMP  C5   CG3C52    -0.027000       12.0110           0
    6365 QQQ  398  NMP  H8   HGA2       0.090000        1.0080           0
    6366 QQQ  398  NMP  H9   HGA2       0.090000        1.0080           0
    6367 QQQ  398  NMP  C6   CG2R53     0.286000       12.0110           0
    6368 QQQ  398  NMP  O7   OG2D1     -0.500000       15.9990           0
    6369 QQQ  399  NMP  C1   CG331     -0.161000       12.0110           0
    6370 QQQ  399  NMP  H1   HGA3       0.090000        1.0080           0
    6371 QQQ  399  NMP  H2   HGA3       0.090000        1.0080           0
    6372 QQQ  399  NMP  H3   HGA3       0.090000        1.0080           0
    6373 QQQ  399  NMP  N2   NG2R53    -0.098000       14.0070           0
    6374 QQQ  399  NMP  C3   CG3C52    -0.077000       12.0110           0
    6375 QQQ  399  NMP  H4   HGA2       0.090000        1.0080           0
    6376 QQQ  399  NMP  H5   HGA2       0.090000        1.0080           0
    6377 QQQ  399  NMP  C4   CG3C52    -0.233000       12.0110           0
    6378 QQQ  399  NMP  H6   HGA2       0.090000        1.0080           0
    6379 QQQ  399  NMP  H7   HGA2       0.090000        1.0080           0
    6380 QQQ  399  NMP  C5   CG3C52    -0.027000       12.0110           0
    6381 QQQ  399  NMP  H8   HGA2       0.090000        1.0080           0
    6382 QQQ  399  NMP  H9   HGA2       0.090000        1.0080           0
    6383 QQQ  399  NMP  C6   CG2R53     0.286000       12.0110           0
    6384 QQQ  399  NMP  O7   OG2D1     -0.500000       15.9990           0
    6385 QQQ  400  NMP  C1   CG331     -0.161000       12.0110           0
    6386 QQQ  400  NMP  H1   HGA3       0.090000        1.0080           0
    6387 QQQ  400  NMP  H2   HGA3       0.090000        1.0080           0
    6388 QQQ  400  NMP  H3   HGA3       0.090000        1.0080           0
    6389 QQQ  400  NMP  N2   NG2R53    -0.098000       14.0070           0
    6390 QQQ  400  NMP  C3   CG3C52    -0.077000       12.0110           0
    6391 QQQ  400  NMP  H4   HGA2       0.090000        1.0080           0
    6392 QQQ  400  NMP  H5   HGA2       0.090000        1.0080           0
    6393 QQQ  400  NMP  C4   CG3C52    -0.233000       12.0110           0
    6394 QQQ  400  NMP  H6   HGA2       0.090000        1.0080           0
    6395 QQQ  400  NMP  H7   HGA2       0.090000        1.0080           0
    6396 QQQ  400  NMP  C5   CG3C52    -0.027000       12.0110           0
    6397 QQQ  400  NMP  H8   HGA2       0.090000        1.0080           0
    6398 QQQ  400  NMP  H9   HGA2       0.090000        1.0080           0
    6399 QQQ  400  NMP  C6   CG2R53     0.286000       12.0110           0
    6400 QQQ  400  NMP  O7   OG2D1     -0.500000       15.9990           0
    6401 QQQ  401  NMP  C1   CG331     -0.161000       12.0110           0
    6402 QQQ  401  NMP  H1   HGA3       0.090000        1.0080           0
    6403 QQQ  401  NMP  H2   HGA3       0.090000        1.0080           0
    6404 QQQ  401  NMP  H3   HGA3       0.090000        1.0080           0
    6405 QQQ  401  NMP  N2   NG2R53    -0.098000       14.0070           0
    6406 QQQ  401  NMP  C3   CG3C52    -0.077000       12.0110           0
    6407 QQQ  401  NMP  H4   HGA2       0.090000        1.0080           0
    6408 QQQ  401  NMP  H5   HGA2       0.090000        1.0080           0
    6409 QQQ  401  NMP  C4   CG3C52    -0.233000       12.0110           0
    6410 QQQ  401  NMP  H6   HGA2       0.090000        1.0080           0
    6411 QQQ  401  NMP  H7   HGA2       0.090000        1.0080           0
    6412 QQQ  401  NMP  C5   CG3C52    -0.027000       12.0110           0
    6413 QQQ  401  NMP  H8   HGA2       0.090000        1.0080           0
    6414 QQQ  401  NMP  H9   HGA2       0.090000        1.0080           0
    6415 QQQ  401  NMP  C6   CG2R53     0.286000       12.0110           0
    6416 QQQ  401  NMP  O7   OG2D1     -0.500000       15.9990           0
    6417 QQQ  402  NMP  C1   CG331     -0.161000       12.0110           0
    6418 QQQ  402  NMP  H1   HGA3       0.090000        1.0080           0
    6419 QQQ  402  NMP  H2   HGA3       0.090000        1.0080           0
    6420 QQQ  402  NMP  H3   HGA3       0.090000        1.0080           0
    6421 QQQ  402  NMP  N2   NG2R53    -0.098000       14.0070           0
    6422 QQQ  402  NMP  C3   CG3C52    -0.077000       12.0110           0
    6423 QQQ  402  NMP  H4   HGA2       0.090000        1.0080           0
    6424 QQQ  402  NMP  H5   HGA2       0.090000        1.0080           0
    6425 QQQ  402  NMP  C4   CG3C52    -0.233000       12.0110           0
    6426 QQQ  402  NMP  H6   HGA2       0.090000        1.0080           0
    6427 QQQ  402  NMP  H7   HGA2       0.090000        1.0080           0
    6428 QQQ  402  NMP  C5   CG3C52    -0.027000       12.0110           0
    6429 QQQ  402  NMP  H8   HGA2       0.090000        1.0080           0
    6430 QQQ  402  NMP  H9   HGA2       0.090000        1.0080           0
    6431 QQQ  402  NMP  C6   CG2R53     0.286000       12.0110           0
    6432 QQQ  402  NMP  O7   OG2D1     -0.500000       15.9990           0
    6433 QQQ  403  NMP  C1   CG331     -0.161000       12.0110           0
    6434 QQQ  403  NMP  H1   HGA3       0.090000        1.0080           0
    6435 QQQ  403  NMP  H2   HGA3       0.090000        1.0080           0
    6436 QQQ  403  NMP  H3   HGA3       0.090000        1.0080           0
    6437 QQQ  403  NMP  N2   NG2R53    -0.098000       14.0070           0
    6438 QQQ  403  NMP  C3   CG3C52    -0.077000       12.0110           0
    6439 QQQ  403  NMP  H4   HGA2       0.090000        1.0080           0
    6440 QQQ  403  NMP  H5   HGA2       0.090000        1.0080           0
    6441 QQQ  403  NMP  C4   CG3C52    -0.233000       12.0110           0
    6442 QQQ  403  NMP  H6   HGA2       0.090000        1.0080           0
    6443 QQQ  403  NMP  H7   HGA2       0.090000        1.0080           0
    6444 QQQ  403  NMP  C5   CG3C52    -0.027000       12.0110           0
    6445 QQQ  403  NMP  H8   HGA2       0.090000        1.0080           0
    6446 QQQ  403  NMP  H9   HGA2       0.090000        1.0080           0
    6447 QQQ  403  NMP  C6   CG2R53     0.286000       12.0110           0
    6448 QQQ  403  NMP  O7   OG2D1     -0.500000       15.9990           0
    6449 QQQ  404  NMP  C1   CG331     -0.161000       12.0110           0
    6450 QQQ  404  NMP  H1   HGA3       0.090000        1.0080           0
    6451 QQQ  404  NMP  H2   HGA3       0.090000        1.0080           0
    6452 QQQ  404  NMP  H3   HGA3       0.090000        1.0080           0
    6453 QQQ  404  NMP  N2   NG2R53    -0.098000       14.0070           0
    6454 QQQ  404  NMP  C3   CG3C52    -0.077000       12.0110           0
    6455 QQQ  404  NMP  H4   HGA2       0.090000        1.0080           0
    6456 QQQ  404  NMP  H5   HGA2       0.090000        1.0080           0
    6457 QQQ  404  NMP  C4   CG3C52    -0.233000       12.0110           0
    6458 QQQ  404  NMP  H6   HGA2       0.090000        1.0080           0
    6459 QQQ  404  NMP  H7   HGA2       0.090000        1.0080           0
    6460 QQQ  404  NMP  C5   CG3C52    -0.027000       12.0110           0
    6461 QQQ  404  NMP  H8   HGA2       0.090000        1.0080           0
    6462 QQQ  404  NMP  H9   HGA2       0.090000        1.0080           0
    6463 QQQ  404  NMP  C6   CG2R53     0.286000       12.0110           0
    6464 QQQ  404  NMP  O7   OG2D1     -0.500000       15.9990           0
    6465 QQQ  405  NMP  C1   CG331     -0.161000       12.0110           0
    6466 QQQ  405  NMP  H1   HGA3       0.090000        1.0080           0
    6467 QQQ  405  NMP  H2   HGA3       0.090000        1.0080           0
    6468 QQQ  405  NMP  H3   HGA3       0.090000        1.0080           0
    6469 QQQ  405  NMP  N2   NG2R53    -0.098000       14.0070           0
    6470 QQQ  405  NMP  C3   CG3C52    -0.077000       12.0110           0
    6471 QQQ  405  NMP  H4   HGA2       0.090000        1.0080           0
    6472 QQQ  405  NMP  H5   HGA2       0.090000        1.0080           0
    6473 QQQ  405  NMP  C4   CG3C52    -0.233000       12.0110           0
    6474 QQQ  405  NMP  H6   HGA2       0.090000        1.0080           0
    6475 QQQ  405  NMP  H7   HGA2       0.090000        1.0080           0
    6476 QQQ  405  NMP  C5   CG3C52    -0.027000       12.0110           0
    6477 QQQ  405  NMP  H8   HGA2       0.090000        1.0080           0
    6478 QQQ  405  NMP  H9   HGA2       0.090000        1.0080           0
    6479 QQQ  405  NMP  C6   CG2R53     0.286000       12.0110           0
    6480 QQQ  405  NMP  O7   OG2D1     -0.500000       15.9990           0
    6481 QQQ  406  NMP  C1   CG331     -0.161000       12.0110           0
    6482 QQQ  406  NMP  H1   HGA3       0.090000        1.0080           0
    6483 QQQ  406  NMP  H2   HGA3       0.090000        1.0080           0
    6484 QQQ  406  NMP  H3   HGA3       0.090000        1.0080           0
    6485 QQQ  406  NMP  N2   NG2R53    -0.098000       14.0070           0
    6486 QQQ  406  NMP  C3   CG3C52    -0.077000       12.0110           0
    6487 QQQ  406  NMP  H4   HGA2       0.090000        1.0080           0
    6488 QQQ  406  NMP  H5   HGA2       0.090000        1.0080           0
    6489 QQQ  406  NMP  C4   CG3C52    -0.233000       12.0110           0
    6490 QQQ  406  NMP  H6   HGA2       0.090000        1.0080           0
    6491 QQQ  406  NMP  H7   HGA2       0.090000        1.0080           0
    6492 QQQ  406  NMP  C5   CG3C52    -0.027000       12.0110           0
    6493 QQQ  406  NMP  H8   HGA2       0.090000        1.0080           0
    6494 QQQ  406  NMP  H9   HGA2       0.090000        1.0080           0
    6495 QQQ  406  NMP  C6   CG2R53     0.286000       12.0110           0
    6496 QQQ  406  NMP  O7   OG2D1     -0.500000       15.9990           0
    6497 QQQ  407  NMP  C1   CG331     -0.161000       12.0110           0
    6498 QQQ  407  NMP  H1   HGA3       0.090000        1.0080           0
    6499 QQQ  407  NMP  H2   HGA3       0.090000        1.0080           0
    6500 QQQ  407  NMP  H3   HGA3       0.090000        1.0080           0
    6501 QQQ  407  NMP  N2   NG2R53    -0.098000       14.0070           0
    6502 QQQ  407  NMP  C3   CG3C52    -0.077000       12.0110           0
    6503 QQQ  407  NMP  H4   HGA2       0.090000        1.0080           0
    6504 QQQ  407  NMP  H5   HGA2       0.090000        1.0080           0
    6505 QQQ  407  NMP  C4   CG3C52    -0.233000       12.0110           0
    6506 QQQ  407  NMP  H6   HGA2       0.090000        1.0080           0
    6507 QQQ  407  NMP  H7   HGA2       0.090000        1.0080           0
    6508 QQQ  407  NMP  C5   CG3C52    -0.027000       12.0110           0
    6509 QQQ  407  NMP  H8   HGA2       0.090000        1.0080           0
    6510 QQQ  407  NMP  H9   HGA2       0.090000        1.0080           0
    6511 QQQ  407  NMP  C6   CG2R53     0.286000       12.0110           0
    6512 QQQ  407  NMP  O7   OG2D1     -0.500000       15.9990           0
    6513 QQQ  408  NMP  C1   CG331     -0.161000       12.0110           0
    6514 QQQ  408  NMP  H1   HGA3       0.090000        1.0080           0
    6515 QQQ  408  NMP  H2   HGA3       0.090000        1.0080           0
    6516 QQQ  408  NMP  H3   HGA3       0.090000        1.0080           0
    6517 QQQ  408  NMP  N2   NG2R53    -0.098000       14.0070           0
    6518 QQQ  408  NMP  C3   CG3C52    -0.077000       12.0110           0
    6519 QQQ  408  NMP  H4   HGA2       0.090000        1.0080           0
    6520 QQQ  408  NMP  H5   HGA2       0.090000        1.0080           0
    6521 QQQ  408  NMP  C4   CG3C52    -0.233000       12.0110           0
    6522 QQQ  408  NMP  H6   HGA2       0.090000        1.0080           0
    6523 QQQ  408  NMP  H7   HGA2       0.090000        1.0080           0
    6524 QQQ  408  NMP  C5   CG3C52    -0.027000       12.0110           0
    6525 QQQ  408  NMP  H8   HGA2       0.090000        1.0080           0
    6526 QQQ  408  NMP  H9   HGA2       0.090000        1.0080           0
    6527 QQQ  408  NMP  C6   CG2R53     0.286000       12.0110           0
    6528 QQQ  408  NMP  O7   OG2D1     -0.500000       15.9990           0
    6529 QQQ  409  NMP  C1   CG331     -0.161000       12.0110           0
    6530 QQQ  409  NMP  H1   HGA3       0.090000        1.0080           0
    6531 QQQ  409  NMP  H2   HGA3       0.090000        1.0080           0
    6532 QQQ  409  NMP  H3   HGA3       0.090000        1.0080           0
    6533 QQQ  409  NMP  N2   NG2R53    -0.098000       14.0070           0
    6534 QQQ  409  NMP  C3   CG3C52    -0.077000       12.0110           0
    6535 QQQ  409  NMP  H4   HGA2       0.090000        1.0080           0
    6536 QQQ  409  NMP  H5   HGA2       0.090000        1.0080           0
    6537 QQQ  409  NMP  C4   CG3C52    -0.233000       12.0110           0
    6538 QQQ  409  NMP  H6   HGA2       0.090000        1.0080           0
    6539 QQQ  409  NMP  H7   HGA2       0.090000        1.0080           0
    6540 QQQ  409  NMP  C5   CG3C52    -0.027000       12.0110           0
    6541 QQQ  409  NMP  H8   HGA2       0.090000        1.0080           0
    6542 QQQ  409  NMP  H9   HGA2       0.090000        1.0080           0
    6543 QQQ  409  NMP  C6   CG2R53     0.286000       12.0110           0
    6544 QQQ  409  NMP  O7   OG2D1     -0.500000       15.9990           0
    6545 QQQ  410  NMP  C1   CG331     -0.161000       12.0110           0
    6546 QQQ  410  NMP  H1   HGA3       0.090000        1.0080           0
    6547 QQQ  410  NMP  H2   HGA3       0.090000        1.0080           0
    6548 QQQ  410  NMP  H3   HGA3       0.090000        1.0080           0
    6549 QQQ  410  NMP  N2   NG2R53    -0.098000       14.0070           0
    6550 QQQ  410  NMP  C3   CG3C52    -0.077000       12.0110           0
    6551 QQQ  410  NMP  H4   HGA2       0.090000        1.0080           0
    6552 QQQ  410  NMP  H5   HGA2       0.090000        1.0080           0
    6553 QQQ  410  NMP  C4   CG3C52    -0.233000       12.0110           0
    6554 QQQ  410  NMP  H6   HGA2       0.090000        1.0080           0
    6555 QQQ  410  NMP  H7   HGA2       0.090000        1.0080           0
    6556 QQQ  410  NMP  C5   CG3C52    -0.027000       12.0110           0
    6557 QQQ  410  NMP  H8   HGA2       0.090000        1.0080           0
    6558 QQQ  410  NMP  H9   HGA2       0.090000        1.0080           0
    6559 QQQ  410  NMP  C6   CG2R53     0.286000       12.0110           0
    6560 QQQ  410  NMP  O7   OG2D1     -0.500000       15.9990           0
    6561 QQQ  411  NMP  C1   CG331     -0.161000       12.0110           0
    6562 QQQ  411  NMP  H1   HGA3       0.090000        1.0080           0
    6563 QQQ  411  NMP  H2   HGA3       0.090000        1.0080           0
    6564 QQQ  411  NMP  H3   HGA3       0.090000        1.0080           0
    6565 QQQ  411  NMP  N2   NG2R53    -0.098000       14.0070           0
    6566 QQQ  411  NMP  C3   CG3C52    -0.077000       12.0110           0
    6567 QQQ  411  NMP  H4   HGA2       0.090000        1.0080           0
    6568 QQQ  411  NMP  H5   HGA2       0.090000        1.0080           0
    6569 QQQ  411  NMP  C4   CG3C52    -0.233000       12.0110           0
    6570 QQQ  411  NMP  H6   HGA2       0.090000        1.0080           0
    6571 QQQ  411  NMP  H7   HGA2       0.090000        1.0080           0
    6572 QQQ  411  NMP  C5   CG3C52    -0.027000       12.0110           0
    6573 QQQ  411  NMP  H8   HGA2       0.090000        1.0080           0
    6574 QQQ  411  NMP  H9   HGA2       0.090000        1.0080           0
    6575 QQQ  411  NMP  C6   CG2R53     0.286000       12.0110           0
    6576 QQQ  411  NMP  O7   OG2D1     -0.500000       15.9990           0
    6577 QQQ  412  NMP  C1   CG331     -0.161000       12.0110           0
    6578 QQQ  412  NMP  H1   HGA3       0.090000        1.0080           0
    6579 QQQ  412  NMP  H2   HGA3       0.090000        1.0080           0
    6580 QQQ  412  NMP  H3   HGA3       0.090000        1.0080           0
    6581 QQQ  412  NMP  N2   NG2R53    -0.098000       14.0070           0
    6582 QQQ  412  NMP  C3   CG3C52    -0.077000       12.0110           0
    6583 QQQ  412  NMP  H4   HGA2       0.090000        1.0080           0
    6584 QQQ  412  NMP  H5   HGA2       0.090000        1.0080           0
    6585 QQQ  412  NMP  C4   CG3C52    -0.233000       12.0110           0
    6586 QQQ  412  NMP  H6   HGA2       0.090000        1.0080           0
    6587 QQQ  412  NMP  H7   HGA2       0.090000        1.0080           0
    6588 QQQ  412  NMP  C5   CG3C52    -0.027000       12.0110           0
    6589 QQQ  412  NMP  H8   HGA2       0.090000        1.0080           0
    6590 QQQ  412  NMP  H9   HGA2       0.090000        1.0080           0
    6591 QQQ  412  NMP  C6   CG2R53     0.286000       12.0110           0
    6592 QQQ  412  NMP  O7   OG2D1     -0.500000       15.9990           0
    6593 QQQ  413  NMP  C1   CG331     -0.161000       12.0110           0
    6594 QQQ  413  NMP  H1   HGA3       0.090000        1.0080           0
    6595 QQQ  413  NMP  H2   HGA3       0.090000        1.0080           0
    6596 QQQ  413  NMP  H3   HGA3       0.090000        1.0080           0
    6597 QQQ  413  NMP  N2   NG2R53    -0.098000       14.0070           0
    6598 QQQ  413  NMP  C3   CG3C52    -0.077000       12.0110           0
    6599 QQQ  413  NMP  H4   HGA2       0.090000        1.0080           0
    6600 QQQ  413  NMP  H5   HGA2       0.090000        1.0080           0
    6601 QQQ  413  NMP  C4   CG3C52    -0.233000       12.0110           0
    6602 QQQ  413  NMP  H6   HGA2       0.090000        1.0080           0
    6603 QQQ  413  NMP  H7   HGA2       0.090000        1.0080           0
    6604 QQQ  413  NMP  C5   CG3C52    -0.027000       12.0110           0
    6605 QQQ  413  NMP  H8   HGA2       0.090000        1.0080           0
    6606 QQQ  413  NMP  H9   HGA2       0.090000        1.0080           0
    6607 QQQ  413  NMP  C6   CG2R53     0.286000       12.0110           0
    6608 QQQ  413  NMP  O7   OG2D1     -0.500000       15.9990           0
    6609 QQQ  414  NMP  C1   CG331     -0.161000       12.0110           0
    6610 QQQ  414  NMP  H1   HGA3       0.090000        1.0080           0
    6611 QQQ  414  NMP  H2   HGA3       0.090000        1.0080           0
    6612 QQQ  414  NMP  H3   HGA3       0.090000        1.0080           0
    6613 QQQ  414  NMP  N2   NG2R53    -0.098000       14.0070           0
    6614 QQQ  414  NMP  C3   CG3C52    -0.077000       12.0110           0
    6615 QQQ  414  NMP  H4   HGA2       0.090000        1.0080           0
    6616 QQQ  414  NMP  H5   HGA2       0.090000        1.0080           0
    6617 QQQ  414  NMP  C4   CG3C52    -0.233000       12.0110           0
    6618 QQQ  414  NMP  H6   HGA2       0.090000        1.0080           0
    6619 QQQ  414  NMP  H7   HGA2       0.090000        1.0080           0
    6620 QQQ  414  NMP  C5   CG3C52    -0.027000       12.0110           0
    6621 QQQ  414  NMP  H8   HGA2       0.090000        1.0080           0
    6622 QQQ  414  NMP  H9   HGA2       0.090000        1.0080           0
    6623 QQQ  414  NMP  C6   CG2R53     0.286000       12.0110           0
    6624 QQQ  414  NMP  O7   OG2D1     -0.500000       15.9990           0
    6625 QQQ  415  NMP  C1   CG331     -0.161000       12.0110           0
    6626 QQQ  415  NMP  H1   HGA3       0.090000        1.0080           0
    6627 QQQ  415  NMP  H2   HGA3       0.090000        1.0080           0
    6628 QQQ  415  NMP  H3   HGA3       0.090000        1.0080           0
    6629 QQQ  415  NMP  N2   NG2R53    -0.098000       14.0070           0
    6630 QQQ  415  NMP  C3   CG3C52    -0.077000       12.0110           0
    6631 QQQ  415  NMP  H4   HGA2       0.090000        1.0080           0
    6632 QQQ  415  NMP  H5   HGA2       0.090000        1.0080           0
    6633 QQQ  415  NMP  C4   CG3C52    -0.233000       12.0110           0
    6634 QQQ  415  NMP  H6   HGA2       0.090000        1.0080           0
    6635 QQQ  415  NMP  H7   HGA2       0.090000        1.0080           0
    6636 QQQ  415  NMP  C5   CG3C52    -0.027000       12.0110           0
    6637 QQQ  415  NMP  H8   HGA2       0.090000        1.0080           0
    6638 QQQ  415  NMP  H9   HGA2       0.090000        1.0080           0
    6639 QQQ  415  NMP  C6   CG2R53     0.286000       12.0110           0
    6640 QQQ  415  NMP  O7   OG2D1     -0.500000       15.9990           0
    6641 QQQ  416  NMP  C1   CG331     -0.161000       12.0110           0
    6642 QQQ  416  NMP  H1   HGA3       0.090000        1.0080           0
    6643 QQQ  416  NMP  H2   HGA3       0.090000        1.0080           0
    6644 QQQ  416  NMP  H3   HGA3       0.090000        1.0080           0
    6645 QQQ  416  NMP  N2   NG2R53    -0.098000       14.0070           0
    6646 QQQ  416  NMP  C3   CG3C52    -0.077000       12.0110           0
    6647 QQQ  416  NMP  H4   HGA2       0.090000        1.0080           0
    6648 QQQ  416  NMP  H5   HGA2       0.090000        1.0080           0
    6649 QQQ  416  NMP  C4   CG3C52    -0.233000       12.0110           0
    6650 QQQ  416  NMP  H6   HGA2       0.090000        1.0080           0
    6651 QQQ  416  NMP  H7   HGA2       0.090000        1.0080           0
    6652 QQQ  416  NMP  C5   CG3C52    -0.027000       12.0110           0
    6653 QQQ  416  NMP  H8   HGA2       0.090000        1.0080           0
    6654 QQQ  416  NMP  H9   HGA2       0.090000        1.0080           0
    6655 QQQ  416  NMP  C6   CG2R53     0.286000       12.0110           0
    6656 QQQ  416  NMP  O7   OG2D1     -0.500000       15.9990           0
    6657 QQQ  417  NMP  C1   CG331     -0.161000       12.0110           0
    6658 QQQ  417  NMP  H1   HGA3       0.090000        1.0080           0
    6659 QQQ  417  NMP  H2   HGA3       0.090000        1.0080           0
    6660 QQQ  417  NMP  H3   HGA3       0.090000        1.0080           0
    6661 QQQ  417  NMP  N2   NG2R53    -0.098000       14.0070           0
    6662 QQQ  417  NMP  C3   CG3C52    -0.077000       12.0110           0
    6663 QQQ  417  NMP  H4   HGA2       0.090000        1.0080           0
    6664 QQQ  417  NMP  H5   HGA2       0.090000        1.0080           0
    6665 QQQ  417  NMP  C4   CG3C52    -0.233000       12.0110           0
    6666 QQQ  417  NMP  H6   HGA2       0.090000        1.0080           0
    6667 QQQ  417  NMP  H7   HGA2       0.090000        1.0080           0
    6668 QQQ  417  NMP  C5   CG3C52    -0.027000       12.0110           0
    6669 QQQ  417  NMP  H8   HGA2       0.090000        1.0080           0
    6670 QQQ  417  NMP  H9   HGA2       0.090000        1.0080           0
    6671 QQQ  417  NMP  C6   CG2R53     0.286000       12.0110           0
    6672 QQQ  417  NMP  O7   OG2D1     -0.500000       15.9990           0
    6673 QQQ  418  NMP  C1   CG331     -0.161000       12.0110           0
    6674 QQQ  418  NMP  H1   HGA3       0.090000        1.0080           0
    6675 QQQ  418  NMP  H2   HGA3       0.090000        1.0080           0
    6676 QQQ  418  NMP  H3   HGA3       0.090000        1.0080           0
    6677 QQQ  418  NMP  N2   NG2R53    -0.098000       14.0070           0
    6678 QQQ  418  NMP  C3   CG3C52    -0.077000       12.0110           0
    6679 QQQ  418  NMP  H4   HGA2       0.090000        1.0080           0
    6680 QQQ  418  NMP  H5   HGA2       0.090000        1.0080           0
    6681 QQQ  418  NMP  C4   CG3C52    -0.233000       12.0110           0
    6682 QQQ  418  NMP  H6   HGA2       0.090000        1.0080           0
    6683 QQQ  418  NMP  H7   HGA2       0.090000        1.0080           0
    6684 QQQ  418  NMP  C5   CG3C52    -0.027000       12.0110           0
    6685 QQQ  418  NMP  H8   HGA2       0.090000        1.0080           0
    6686 QQQ  418  NMP  H9   HGA2       0.090000        1.0080           0
    6687 QQQ  418  NMP  C6   CG2R53     0.286000       12.0110           0
    6688 QQQ  418  NMP  O7   OG2D1     -0.500000       15.9990           0
    6689 QQQ  419  NMP  C1   CG331     -0.161000       12.0110           0
    6690 QQQ  419  NMP  H1   HGA3       0.090000        1.0080           0
    6691 QQQ  419  NMP  H2   HGA3       0.090000        1.0080           0
    6692 QQQ  419  NMP  H3   HGA3       0.090000        1.0080           0
    6693 QQQ  419  NMP  N2   NG2R53    -0.098000       14.0070           0
    6694 QQQ  419  NMP  C3   CG3C52    -0.077000       12.0110           0
    6695 QQQ  419  NMP  H4   HGA2       0.090000        1.0080           0
    6696 QQQ  419  NMP  H5   HGA2       0.090000        1.0080           0
    6697 QQQ  419  NMP  C4   CG3C52    -0.233000       12.0110           0
    6698 QQQ  419  NMP  H6   HGA2       0.090000        1.0080           0
    6699 QQQ  419  NMP  H7   HGA2       0.090000        1.0080           0
    6700 QQQ  419  NMP  C5   CG3C52    -0.027000       12.0110           0
    6701 QQQ  419  NMP  H8   HGA2       0.090000        1.0080           0
    6702 QQQ  419  NMP  H9   HGA2       0.090000        1.0080           0
    6703 QQQ  419  NMP  C6   CG2R53     0.286000       12.0110           0
    6704 QQQ  419  NMP  O7   OG2D1     -0.500000       15.9990           0
    6705 QQQ  420  NMP  C1   CG331     -0.161000       12.0110           0
    6706 QQQ  420  NMP  H1   HGA3       0.090000        1.0080           0
    6707 QQQ  420  NMP  H2   HGA3       0.090000        1.0080           0
    6708 QQQ  420  NMP  H3   HGA3       0.090000        1.0080           0
    6709 QQQ  420  NMP  N2   NG2R53    -0.098000       14.0070           0
    6710 QQQ  420  NMP  C3   CG3C52    -0.077000       12.0110           0
    6711 QQQ  420  NMP  H4   HGA2       0.090000        1.0080           0
    6712 QQQ  420  NMP  H5   HGA2       0.090000        1.0080           0
    6713 QQQ  420  NMP  C4   CG3C52    -0.233000       12.0110           0
    6714 QQQ  420  NMP  H6   HGA2       0.090000        1.0080           0
    6715 QQQ  420  NMP  H7   HGA2       0.090000        1.0080           0
    6716 QQQ  420  NMP  C5   CG3C52    -0.027000       12.0110           0
    6717 QQQ  420  NMP  H8   HGA2       0.090000        1.0080           0
    6718 QQQ  420  NMP  H9   HGA2       0.090000        1.0080           0
    6719 QQQ  420  NMP  C6   CG2R53     0.286000       12.0110           0
    6720 QQQ  420  NMP  O7   OG2D1     -0.500000       15.9990           0
    6721 QQQ  421  NMP  C1   CG331     -0.161000       12.0110           0
    6722 QQQ  421  NMP  H1   HGA3       0.090000        1.0080           0
    6723 QQQ  421  NMP  H2   HGA3       0.090000        1.0080           0
    6724 QQQ  421  NMP  H3   HGA3       0.090000        1.0080           0
    6725 QQQ  421  NMP  N2   NG2R53    -0.098000       14.0070           0
    6726 QQQ  421  NMP  C3   CG3C52    -0.077000       12.0110           0
    6727 QQQ  421  NMP  H4   HGA2       0.090000        1.0080           0
    6728 QQQ  421  NMP  H5   HGA2       0.090000        1.0080           0
    6729 QQQ  421  NMP  C4   CG3C52    -0.233000       12.0110           0
    6730 QQQ  421  NMP  H6   HGA2       0.090000        1.0080           0
    6731 QQQ  421  NMP  H7   HGA2       0.090000        1.0080           0
    6732 QQQ  421  NMP  C5   CG3C52    -0.027000       12.0110           0
    6733 QQQ  421  NMP  H8   HGA2       0.090000        1.0080           0
    6734 QQQ  421  NMP  H9   HGA2       0.090000        1.0080           0
    6735 QQQ  421  NMP  C6   CG2R53     0.286000       12.0110           0
    6736 QQQ  421  NMP  O7   OG2D1     -0.500000       15.9990           0
    6737 QQQ  422  NMP  C1   CG331     -0.161000       12.0110           0
    6738 QQQ  422  NMP  H1   HGA3       0.090000        1.0080           0
    6739 QQQ  422  NMP  H2   HGA3       0.090000        1.0080           0
    6740 QQQ  422  NMP  H3   HGA3       0.090000        1.0080           0
    6741 QQQ  422  NMP  N2   NG2R53    -0.098000       14.0070           0
    6742 QQQ  422  NMP  C3   CG3C52    -0.077000       12.0110           0
    6743 QQQ  422  NMP  H4   HGA2       0.090000        1.0080           0
    6744 QQQ  422  NMP  H5   HGA2       0.090000        1.0080           0
    6745 QQQ  422  NMP  C4   CG3C52    -0.233000       12.0110           0
    6746 QQQ  422  NMP  H6   HGA2       0.090000        1.0080           0
    6747 QQQ  422  NMP  H7   HGA2       0.090000        1.0080           0
    6748 QQQ  422  NMP  C5   CG3C52    -0.027000       12.0110           0
    6749 QQQ  422  NMP  H8   HGA2       0.090000        1.0080           0
    6750 QQQ  422  NMP  H9   HGA2       0.090000        1.0080           0
    6751 QQQ  422  NMP  C6   CG2R53     0.286000       12.0110           0
    6752 QQQ  422  NMP  O7   OG2D1     -0.500000       15.9990           0
    6753 QQQ  423  NMP  C1   CG331     -0.161000       12.0110           0
    6754 QQQ  423  NMP  H1   HGA3       0.090000        1.0080           0
    6755 QQQ  423  NMP  H2   HGA3       0.090000        1.0080           0
    6756 QQQ  423  NMP  H3   HGA3       0.090000        1.0080           0
    6757 QQQ  423  NMP  N2   NG2R53    -0.098000       14.0070           0
    6758 QQQ  423  NMP  C3   CG3C52    -0.077000       12.0110           0
    6759 QQQ  423  NMP  H4   HGA2       0.090000        1.0080           0
    6760 QQQ  423  NMP  H5   HGA2       0.090000        1.0080           0
    6761 QQQ  423  NMP  C4   CG3C52    -0.233000       12.0110           0
    6762 QQQ  423  NMP  H6   HGA2       0.090000        1.0080           0
    6763 QQQ  423  NMP  H7   HGA2       0.090000        1.0080           0
    6764 QQQ  423  NMP  C5   CG3C52    -0.027000       12.0110           0
    6765 QQQ  423  NMP  H8   HGA2       0.090000        1.0080           0
    6766 QQQ  423  NMP  H9   HGA2       0.090000        1.0080           0
    6767 QQQ  423  NMP  C6   CG2R53     0.286000       12.0110           0
    6768 QQQ  423  NMP  O7   OG2D1     -0.500000       15.9990           0
    6769 QQQ  424  NMP  C1   CG331     -0.161000       12.0110           0
    6770 QQQ  424  NMP  H1   HGA3       0.090000        1.0080           0
    6771 QQQ  424  NMP  H2   HGA3       0.090000        1.0080           0
    6772 QQQ  424  NMP  H3   HGA3       0.090000        1.0080           0
    6773 QQQ  424  NMP  N2   NG2R53    -0.098000       14.0070           0
    6774 QQQ  424  NMP  C3   CG3C52    -0.077000       12.0110           0
    6775 QQQ  424  NMP  H4   HGA2       0.090000        1.0080           0
    6776 QQQ  424  NMP  H5   HGA2       0.090000        1.0080           0
    6777 QQQ  424  NMP  C4   CG3C52    -0.233000       12.0110           0
    6778 QQQ  424  NMP  H6   HGA2       0.090000        1.0080           0
    6779 QQQ  424  NMP  H7   HGA2       0.090000        1.0080           0
    6780 QQQ  424  NMP  C5   CG3C52    -0.027000       12.0110           0
    6781 QQQ  424  NMP  H8   HGA2       0.090000        1.0080           0
    6782 QQQ  424  NMP  H9   HGA2       0.090000        1.0080           0
    6783 QQQ  424  NMP  C6   CG2R53     0.286000       12.0110           0
    6784 QQQ  424  NMP  O7   OG2D1     -0.500000       15.9990           0
    6785 QQQ  425  NMP  C1   CG331     -0.161000       12.0110           0
    6786 QQQ  425  NMP  H1   HGA3       0.090000        1.0080           0
    6787 QQQ  425  NMP  H2   HGA3       0.090000        1.0080           0
    6788 QQQ  425  NMP  H3   HGA3       0.090000        1.0080           0
    6789 QQQ  425  NMP  N2   NG2R53    -0.098000       14.0070           0
    6790 QQQ  425  NMP  C3   CG3C52    -0.077000       12.0110           0
    6791 QQQ  425  NMP  H4   HGA2       0.090000        1.0080           0
    6792 QQQ  425  NMP  H5   HGA2       0.090000        1.0080           0
    6793 QQQ  425  NMP  C4   CG3C52    -0.233000       12.0110           0
    6794 QQQ  425  NMP  H6   HGA2       0.090000        1.0080           0
    6795 QQQ  425  NMP  H7   HGA2       0.090000        1.0080           0
    6796 QQQ  425  NMP  C5   CG3C52    -0.027000       12.0110           0
    6797 QQQ  425  NMP  H8   HGA2       0.090000        1.0080           0
    6798 QQQ  425  NMP  H9   HGA2       0.090000        1.0080           0
    6799 QQQ  425  NMP  C6   CG2R53     0.286000       12.0110           0
    6800 QQQ  425  NMP  O7   OG2D1     -0.500000       15.9990           0
    6801 QQQ  426  NMP  C1   CG331     -0.161000       12.0110           0
    6802 QQQ  426  NMP  H1   HGA3       0.090000        1.0080           0
    6803 QQQ  426  NMP  H2   HGA3       0.090000        1.0080           0
    6804 QQQ  426  NMP  H3   HGA3       0.090000        1.0080           0
    6805 QQQ  426  NMP  N2   NG2R53    -0.098000       14.0070           0
    6806 QQQ  426  NMP  C3   CG3C52    -0.077000       12.0110           0
    6807 QQQ  426  NMP  H4   HGA2       0.090000        1.0080           0
    6808 QQQ  426  NMP  H5   HGA2       0.090000        1.0080           0
    6809 QQQ  426  NMP  C4   CG3C52    -0.233000       12.0110           0
    6810 QQQ  426  NMP  H6   HGA2       0.090000        1.0080           0
    6811 QQQ  426  NMP  H7   HGA2       0.090000        1.0080           0
    6812 QQQ  426  NMP  C5   CG3C52    -0.027000       12.0110           0
    6813 QQQ  426  NMP  H8   HGA2       0.090000        1.0080           0
    6814 QQQ  426  NMP  H9   HGA2       0.090000        1.0080           0
    6815 QQQ  426  NMP  C6   CG2R53     0.286000       12.0110           0
    6816 QQQ  426  NMP  O7   OG2D1     -0.500000       15.9990           0
    6817 QQQ  427  NMP  C1   CG331     -0.161000       12.0110           0
    6818 QQQ  427  NMP  H1   HGA3       0.090000        1.0080           0
    6819 QQQ  427  NMP  H2   HGA3       0.090000        1.0080           0
    6820 QQQ  427  NMP  H3   HGA3       0.090000        1.0080           0
    6821 QQQ  427  NMP  N2   NG2R53    -0.098000       14.0070           0
    6822 QQQ  427  NMP  C3   CG3C52    -0.077000       12.0110           0
    6823 QQQ  427  NMP  H4   HGA2       0.090000        1.0080           0
    6824 QQQ  427  NMP  H5   HGA2       0.090000        1.0080           0
    6825 QQQ  427  NMP  C4   CG3C52    -0.233000       12.0110           0
    6826 QQQ  427  NMP  H6   HGA2       0.090000        1.0080           0
    6827 QQQ  427  NMP  H7   HGA2       0.090000        1.0080           0
    6828 QQQ  427  NMP  C5   CG3C52    -0.027000       12.0110           0
    6829 QQQ  427  NMP  H8   HGA2       0.090000        1.0080           0
    6830 QQQ  427  NMP  H9   HGA2       0.090000        1.0080           0
    6831 QQQ  427  NMP  C6   CG2R53     0.286000       12.0110           0
    6832 QQQ  427  NMP  O7   OG2D1     -0.500000       15.9990           0
    6833 QQQ  428  NMP  C1   CG331     -0.161000       12.0110           0
    6834 QQQ  428  NMP  H1   HGA3       0.090000        1.0080           0
    6835 QQQ  428  NMP  H2   HGA3       0.090000        1.0080           0
    6836 QQQ  428  NMP  H3   HGA3       0.090000        1.0080           0
    6837 QQQ  428  NMP  N2   NG2R53    -0.098000       14.0070           0
    6838 QQQ  428  NMP  C3   CG3C52    -0.077000       12.0110           0
    6839 QQQ  428  NMP  H4   HGA2       0.090000        1.0080           0
    6840 QQQ  428  NMP  H5   HGA2       0.090000        1.0080           0
    6841 QQQ  428  NMP  C4   CG3C52    -0.233000       12.0110           0
    6842 QQQ  428  NMP  H6   HGA2       0.090000        1.0080           0
    6843 QQQ  428  NMP  H7   HGA2       0.090000        1.0080           0
    6844 QQQ  428  NMP  C5   CG3C52    -0.027000       12.0110           0
    6845 QQQ  428  NMP  H8   HGA2       0.090000        1.0080           0
    6846 QQQ  428  NMP  H9   HGA2       0.090000        1.0080           0
    6847 QQQ  428  NMP  C6   CG2R53     0.286000       12.0110           0
    6848 QQQ  428  NMP  O7   OG2D1     -0.500000       15.9990           0
    6849 QQQ  429  NMP  C1   CG331     -0.161000       12.0110           0
    6850 QQQ  429  NMP  H1   HGA3       0.090000        1.0080           0
    6851 QQQ  429  NMP  H2   HGA3       0.090000        1.0080           0
    6852 QQQ  429  NMP  H3   HGA3       0.090000        1.0080           0
    6853 QQQ  429  NMP  N2   NG2R53    -0.098000       14.0070           0
    6854 QQQ  429  NMP  C3   CG3C52    -0.077000       12.0110           0
    6855 QQQ  429  NMP  H4   HGA2       0.090000        1.0080           0
    6856 QQQ  429  NMP  H5   HGA2       0.090000        1.0080           0
    6857 QQQ  429  NMP  C4   CG3C52    -0.233000       12.0110           0
    6858 QQQ  429  NMP  H6   HGA2       0.090000        1.0080           0
    6859 QQQ  429  NMP  H7   HGA2       0.090000        1.0080           0
    6860 QQQ  429  NMP  C5   CG3C52    -0.027000       12.0110           0
    6861 QQQ  429  NMP  H8   HGA2       0.090000        1.0080           0
    6862 QQQ  429  NMP  H9   HGA2       0.090000        1.0080           0
    6863 QQQ  429  NMP  C6   CG2R53     0.286000       12.0110           0
    6864 QQQ  429  NMP  O7   OG2D1     -0.500000       15.9990           0
    6865 QQQ  430  NMP  C1   CG331     -0.161000       12.0110           0
    6866 QQQ  430  NMP  H1   HGA3       0.090000        1.0080           0
    6867 QQQ  430  NMP  H2   HGA3       0.090000        1.0080           0
    6868 QQQ  430  NMP  H3   HGA3       0.090000        1.0080           0
    6869 QQQ  430  NMP  N2   NG2R53    -0.098000       14.0070           0
    6870 QQQ  430  NMP  C3   CG3C52    -0.077000       12.0110           0
    6871 QQQ  430  NMP  H4   HGA2       0.090000        1.0080           0
    6872 QQQ  430  NMP  H5   HGA2       0.090000        1.0080           0
    6873 QQQ  430  NMP  C4   CG3C52    -0.233000       12.0110           0
    6874 QQQ  430  NMP  H6   HGA2       0.090000        1.0080           0
    6875 QQQ  430  NMP  H7   HGA2       0.090000        1.0080           0
    6876 QQQ  430  NMP  C5   CG3C52    -0.027000       12.0110           0
    6877 QQQ  430  NMP  H8   HGA2       0.090000        1.0080           0
    6878 QQQ  430  NMP  H9   HGA2       0.090000        1.0080           0
    6879 QQQ  430  NMP  C6   CG2R53     0.286000       12.0110           0
    6880 QQQ  430  NMP  O7   OG2D1     -0.500000       15.9990           0
    6881 QQQ  431  NMP  C1   CG331     -0.161000       12.0110           0
    6882 QQQ  431  NMP  H1   HGA3       0.090000        1.0080           0
    6883 QQQ  431  NMP  H2   HGA3       0.090000        1.0080           0
    6884 QQQ  431  NMP  H3   HGA3       0.090000        1.0080           0
    6885 QQQ  431  NMP  N2   NG2R53    -0.098000       14.0070           0
    6886 QQQ  431  NMP  C3   CG3C52    -0.077000       12.0110           0
    6887 QQQ  431  NMP  H4   HGA2       0.090000        1.0080           0
    6888 QQQ  431  NMP  H5   HGA2       0.090000        1.0080           0
    6889 QQQ  431  NMP  C4   CG3C52    -0.233000       12.0110           0
    6890 QQQ  431  NMP  H6   HGA2       0.090000        1.0080           0
    6891 QQQ  431  NMP  H7   HGA2       0.090000        1.0080           0
    6892 QQQ  431  NMP  C5   CG3C52    -0.027000       12.0110           0
    6893 QQQ  431  NMP  H8   HGA2       0.090000        1.0080           0
    6894 QQQ  431  NMP  H9   HGA2       0.090000        1.0080           0
    6895 QQQ  431  NMP  C6   CG2R53     0.286000       12.0110           0
    6896 QQQ  431  NMP  O7   OG2D1     -0.500000       15.9990           0
    6897 QQQ  432  NMP  C1   CG331     -0.161000       12.0110           0
    6898 QQQ  432  NMP  H1   HGA3       0.090000        1.0080           0
    6899 QQQ  432  NMP  H2   HGA3       0.090000        1.0080           0
    6900 QQQ  432  NMP  H3   HGA3       0.090000        1.0080           0
    6901 QQQ  432  NMP  N2   NG2R53    -0.098000       14.0070           0
    6902 QQQ  432  NMP  C3   CG3C52    -0.077000       12.0110           0
    6903 QQQ  432  NMP  H4   HGA2       0.090000        1.0080           0
    6904 QQQ  432  NMP  H5   HGA2       0.090000        1.0080           0
    6905 QQQ  432  NMP  C4   CG3C52    -0.233000       12.0110           0
    6906 QQQ  432  NMP  H6   HGA2       0.090000        1.0080           0
    6907 QQQ  432  NMP  H7   HGA2       0.090000        1.0080           0
    6908 QQQ  432  NMP  C5   CG3C52    -0.027000       12.0110           0
    6909 QQQ  432  NMP  H8   HGA2       0.090000        1.0080           0
    6910 QQQ  432  NMP  H9   HGA2       0.090000        1.0080           0
    6911 QQQ  432  NMP  C6   CG2R53     0.286000       12.0110           0
    6912 QQQ  432  NMP  O7   OG2D1     -0.500000       15.9990           0
    6913 QQQ  433  NMP  C1   CG331     -0.161000       12.0110           0
    6914 QQQ  433  NMP  H1   HGA3       0.090000        1.0080           0
    6915 QQQ  433  NMP  H2   HGA3       0.090000        1.0080           0
    6916 QQQ  433  NMP  H3   HGA3       0.090000        1.0080           0
    6917 QQQ  433  NMP  N2   NG2R53    -0.098000       14.0070           0
    6918 QQQ  433  NMP  C3   CG3C52    -0.077000       12.0110           0
    6919 QQQ  433  NMP  H4   HGA2       0.090000        1.0080           0
    6920 QQQ  433  NMP  H5   HGA2       0.090000        1.0080           0
    6921 QQQ  433  NMP  C4   CG3C52    -0.233000       12.0110           0
    6922 QQQ  433  NMP  H6   HGA2       0.090000        1.0080           0
    6923 QQQ  433  NMP  H7   HGA2       0.090000        1.0080           0
    6924 QQQ  433  NMP  C5   CG3C52    -0.027000       12.0110           0
    6925 QQQ  433  NMP  H8   HGA2       0.090000        1.0080           0
    6926 QQQ  433  NMP  H9   HGA2       0.090000        1.0080           0
    6927 QQQ  433  NMP  C6   CG2R53     0.286000       12.0110           0
    6928 QQQ  433  NMP  O7   OG2D1     -0.500000       15.9990           0
    6929 QQQ  434  NMP  C1   CG331     -0.161000       12.0110           0
    6930 QQQ  434  NMP  H1   HGA3       0.090000        1.0080           0
    6931 QQQ  434  NMP  H2   HGA3       0.090000        1.0080           0
    6932 QQQ  434  NMP  H3   HGA3       0.090000        1.0080           0
    6933 QQQ  434  NMP  N2   NG2R53    -0.098000       14.0070           0
    6934 QQQ  434  NMP  C3   CG3C52    -0.077000       12.0110           0
    6935 QQQ  434  NMP  H4   HGA2       0.090000        1.0080           0
    6936 QQQ  434  NMP  H5   HGA2       0.090000        1.0080           0
    6937 QQQ  434  NMP  C4   CG3C52    -0.233000       12.0110           0
    6938 QQQ  434  NMP  H6   HGA2       0.090000        1.0080           0
    6939 QQQ  434  NMP  H7   HGA2       0.090000        1.0080           0
    6940 QQQ  434  NMP  C5   CG3C52    -0.027000       12.0110           0
    6941 QQQ  434  NMP  H8   HGA2       0.090000        1.0080           0
    6942 QQQ  434  NMP  H9   HGA2       0.090000        1.0080           0
    6943 QQQ  434  NMP  C6   CG2R53     0.286000       12.0110           0
    6944 QQQ  434  NMP  O7   OG2D1     -0.500000       15.9990           0
    6945 QQQ  435  NMP  C1   CG331     -0.161000       12.0110           0
    6946 QQQ  435  NMP  H1   HGA3       0.090000        1.0080           0
    6947 QQQ  435  NMP  H2   HGA3       0.090000        1.0080           0
    6948 QQQ  435  NMP  H3   HGA3       0.090000        1.0080           0
    6949 QQQ  435  NMP  N2   NG2R53    -0.098000       14.0070           0
    6950 QQQ  435  NMP  C3   CG3C52    -0.077000       12.0110           0
    6951 QQQ  435  NMP  H4   HGA2       0.090000        1.0080           0
    6952 QQQ  435  NMP  H5   HGA2       0.090000        1.0080           0
    6953 QQQ  435  NMP  C4   CG3C52    -0.233000       12.0110           0
    6954 QQQ  435  NMP  H6   HGA2       0.090000        1.0080           0
    6955 QQQ  435  NMP  H7   HGA2       0.090000        1.0080           0
    6956 QQQ  435  NMP  C5   CG3C52    -0.027000       12.0110           0
    6957 QQQ  435  NMP  H8   HGA2       0.090000        1.0080           0
    6958 QQQ  435  NMP  H9   HGA2       0.090000        1.0080           0
    6959 QQQ  435  NMP  C6   CG2R53     0.286000       12.0110           0
    6960 QQQ  435  NMP  O7   OG2D1     -0.500000       15.9990           0
    6961 QQQ  436  NMP  C1   CG331     -0.161000       12.0110           0
    6962 QQQ  436  NMP  H1   HGA3       0.090000        1.0080           0
    6963 QQQ  436  NMP  H2   HGA3       0.090000        1.0080           0
    6964 QQQ  436  NMP  H3   HGA3       0.090000        1.0080           0
    6965 QQQ  436  NMP  N2   NG2R53    -0.098000       14.0070           0
    6966 QQQ  436  NMP  C3   CG3C52    -0.077000       12.0110           0
    6967 QQQ  436  NMP  H4   HGA2       0.090000        1.0080           0
    6968 QQQ  436  NMP  H5   HGA2       0.090000        1.0080           0
    6969 QQQ  436  NMP  C4   CG3C52    -0.233000       12.0110           0
    6970 QQQ  436  NMP  H6   HGA2       0.090000        1.0080           0
    6971 QQQ  436  NMP  H7   HGA2       0.090000        1.0080           0
    6972 QQQ  436  NMP  C5   CG3C52    -0.027000       12.0110           0
    6973 QQQ  436  NMP  H8   HGA2       0.090000        1.0080           0
    6974 QQQ  436  NMP  H9   HGA2       0.090000        1.0080           0
    6975 QQQ  436  NMP  C6   CG2R53     0.286000       12.0110           0
    6976 QQQ  436  NMP  O7   OG2D1     -0.500000       15.9990           0
    6977 QQQ  437  NMP  C1   CG331     -0.161000       12.0110           0
    6978 QQQ  437  NMP  H1   HGA3       0.090000        1.0080           0
    6979 QQQ  437  NMP  H2   HGA3       0.090000        1.0080           0
    6980 QQQ  437  NMP  H3   HGA3       0.090000        1.0080           0
    6981 QQQ  437  NMP  N2   NG2R53    -0.098000       14.0070           0
    6982 QQQ  437  NMP  C3   CG3C52    -0.077000       12.0110           0
    6983 QQQ  437  NMP  H4   HGA2       0.090000        1.0080           0
    6984 QQQ  437  NMP  H5   HGA2       0.090000        1.0080           0
    6985 QQQ  437  NMP  C4   CG3C52    -0.233000       12.0110           0
    6986 QQQ  437  NMP  H6   HGA2       0.090000        1.0080           0
    6987 QQQ  437  NMP  H7   HGA2       0.090000        1.0080           0
    6988 QQQ  437  NMP  C5   CG3C52    -0.027000       12.0110           0
    6989 QQQ  437  NMP  H8   HGA2       0.090000        1.0080           0
    6990 QQQ  437  NMP  H9   HGA2       0.090000        1.0080           0
    6991 QQQ  437  NMP  C6   CG2R53     0.286000       12.0110           0
    6992 QQQ  437  NMP  O7   OG2D1     -0.500000       15.9990           0
    6993 QQQ  438  NMP  C1   CG331     -0.161000       12.0110           0
    6994 QQQ  438  NMP  H1   HGA3       0.090000        1.0080           0
    6995 QQQ  438  NMP  H2   HGA3       0.090000        1.0080           0
    6996 QQQ  438  NMP  H3   HGA3       0.090000        1.0080           0
    6997 QQQ  438  NMP  N2   NG2R53    -0.098000       14.0070           0
    6998 QQQ  438  NMP  C3   CG3C52    -0.077000       12.0110           0
    6999 QQQ  438  NMP  H4   HGA2       0.090000        1.0080           0
    7000 QQQ  438  NMP  H5   HGA2       0.090000        1.0080           0
    7001 QQQ  438  NMP  C4   CG3C52    -0.233000       12.0110           0
    7002 QQQ  438  NMP  H6   HGA2       0.090000        1.0080           0
    7003 QQQ  438  NMP  H7   HGA2       0.090000        1.0080           0
    7004 QQQ  438  NMP  C5   CG3C52    -0.027000       12.0110           0
    7005 QQQ  438  NMP  H8   HGA2       0.090000        1.0080           0
    7006 QQQ  438  NMP  H9   HGA2       0.090000        1.0080           0
    7007 QQQ  438  NMP  C6   CG2R53     0.286000       12.0110           0
    7008 QQQ  438  NMP  O7   OG2D1     -0.500000       15.9990           0
    7009 QQQ  439  NMP  C1   CG331     -0.161000       12.0110           0
    7010 QQQ  439  NMP  H1   HGA3       0.090000        1.0080           0
    7011 QQQ  439  NMP  H2   HGA3       0.090000        1.0080           0
    7012 QQQ  439  NMP  H3   HGA3       0.090000        1.0080           0
    7013 QQQ  439  NMP  N2   NG2R53    -0.098000       14.0070           0
    7014 QQQ  439  NMP  C3   CG3C52    -0.077000       12.0110           0
    7015 QQQ  439  NMP  H4   HGA2       0.090000        1.0080           0
    7016 QQQ  439  NMP  H5   HGA2       0.090000        1.0080           0
    7017 QQQ  439  NMP  C4   CG3C52    -0.233000       12.0110           0
    7018 QQQ  439  NMP  H6   HGA2       0.090000        1.0080           0
    7019 QQQ  439  NMP  H7   HGA2       0.090000        1.0080           0
    7020 QQQ  439  NMP  C5   CG3C52    -0.027000       12.0110           0
    7021 QQQ  439  NMP  H8   HGA2       0.090000        1.0080           0
    7022 QQQ  439  NMP  H9   HGA2       0.090000        1.0080           0
    7023 QQQ  439  NMP  C6   CG2R53     0.286000       12.0110           0
    7024 QQQ  439  NMP  O7   OG2D1     -0.500000       15.9990           0
    7025 QQQ  440  NMP  C1   CG331     -0.161000       12.0110           0
    7026 QQQ  440  NMP  H1   HGA3       0.090000        1.0080           0
    7027 QQQ  440  NMP  H2   HGA3       0.090000        1.0080           0
    7028 QQQ  440  NMP  H3   HGA3       0.090000        1.0080           0
    7029 QQQ  440  NMP  N2   NG2R53    -0.098000       14.0070           0
    7030 QQQ  440  NMP  C3   CG3C52    -0.077000       12.0110           0
    7031 QQQ  440  NMP  H4   HGA2       0.090000        1.0080           0
    7032 QQQ  440  NMP  H5   HGA2       0.090000        1.0080           0
    7033 QQQ  440  NMP  C4   CG3C52    -0.233000       12.0110           0
    7034 QQQ  440  NMP  H6   HGA2       0.090000        1.0080           0
    7035 QQQ  440  NMP  H7   HGA2       0.090000        1.0080           0
    7036 QQQ  440  NMP  C5   CG3C52    -0.027000       12.0110           0
    7037 QQQ  440  NMP  H8   HGA2       0.090000        1.0080           0
    7038 QQQ  440  NMP  H9   HGA2       0.090000        1.0080           0
    7039 QQQ  440  NMP  C6   CG2R53     0.286000       12.0110           0
    7040 QQQ  440  NMP  O7   OG2D1     -0.500000       15.9990           0
    7041 QQQ  441  NMP  C1   CG331     -0.161000       12.0110           0
    7042 QQQ  441  NMP  H1   HGA3       0.090000        1.0080           0
    7043 QQQ  441  NMP  H2   HGA3       0.090000        1.0080           0
    7044 QQQ  441  NMP  H3   HGA3       0.090000        1.0080           0
    7045 QQQ  441  NMP  N2   NG2R53    -0.098000       14.0070           0
    7046 QQQ  441  NMP  C3   CG3C52    -0.077000       12.0110           0
    7047 QQQ  441  NMP  H4   HGA2       0.090000        1.0080           0
    7048 QQQ  441  NMP  H5   HGA2       0.090000        1.0080           0
    7049 QQQ  441  NMP  C4   CG3C52    -0.233000       12.0110           0
    7050 QQQ  441  NMP  H6   HGA2       0.090000        1.0080           0
    7051 QQQ  441  NMP  H7   HGA2       0.090000        1.0080           0
    7052 QQQ  441  NMP  C5   CG3C52    -0.027000       12.0110           0
    7053 QQQ  441  NMP  H8   HGA2       0.090000        1.0080           0
    7054 QQQ  441  NMP  H9   HGA2       0.090000        1.0080           0
    7055 QQQ  441  NMP  C6   CG2R53     0.286000       12.0110           0
    7056 QQQ  441  NMP  O7   OG2D1     -0.500000       15.9990           0
    7057 QQQ  442  NMP  C1   CG331     -0.161000       12.0110           0
    7058 QQQ  442  NMP  H1   HGA3       0.090000        1.0080           0
    7059 QQQ  442  NMP  H2   HGA3       0.090000        1.0080           0
    7060 QQQ  442  NMP  H3   HGA3       0.090000        1.0080           0
    7061 QQQ  442  NMP  N2   NG2R53    -0.098000       14.0070           0
    7062 QQQ  442  NMP  C3   CG3C52    -0.077000       12.0110           0
    7063 QQQ  442  NMP  H4   HGA2       0.090000        1.0080           0
    7064 QQQ  442  NMP  H5   HGA2       0.090000        1.0080           0
    7065 QQQ  442  NMP  C4   CG3C52    -0.233000       12.0110           0
    7066 QQQ  442  NMP  H6   HGA2       0.090000        1.0080           0
    7067 QQQ  442  NMP  H7   HGA2       0.090000        1.0080           0
    7068 QQQ  442  NMP  C5   CG3C52    -0.027000       12.0110           0
    7069 QQQ  442  NMP  H8   HGA2       0.090000        1.0080           0
    7070 QQQ  442  NMP  H9   HGA2       0.090000        1.0080           0
    7071 QQQ  442  NMP  C6   CG2R53     0.286000       12.0110           0
    7072 QQQ  442  NMP  O7   OG2D1     -0.500000       15.9990           0
    7073 QQQ  443  NMP  C1   CG331     -0.161000       12.0110           0
    7074 QQQ  443  NMP  H1   HGA3       0.090000        1.0080           0
    7075 QQQ  443  NMP  H2   HGA3       0.090000        1.0080           0
    7076 QQQ  443  NMP  H3   HGA3       0.090000        1.0080           0
    7077 QQQ  443  NMP  N2   NG2R53    -0.098000       14.0070           0
    7078 QQQ  443  NMP  C3   CG3C52    -0.077000       12.0110           0
    7079 QQQ  443  NMP  H4   HGA2       0.090000        1.0080           0
    7080 QQQ  443  NMP  H5   HGA2       0.090000        1.0080           0
    7081 QQQ  443  NMP  C4   CG3C52    -0.233000       12.0110           0
    7082 QQQ  443  NMP  H6   HGA2       0.090000        1.0080           0
    7083 QQQ  443  NMP  H7   HGA2       0.090000        1.0080           0
    7084 QQQ  443  NMP  C5   CG3C52    -0.027000       12.0110           0
    7085 QQQ  443  NMP  H8   HGA2       0.090000        1.0080           0
    7086 QQQ  443  NMP  H9   HGA2       0.090000        1.0080           0
    7087 QQQ  443  NMP  C6   CG2R53     0.286000       12.0110           0
    7088 QQQ  443  NMP  O7   OG2D1     -0.500000       15.9990           0
    7089 QQQ  444  NMP  C1   CG331     -0.161000       12.0110           0
    7090 QQQ  444  NMP  H1   HGA3       0.090000        1.0080           0
    7091 QQQ  444  NMP  H2   HGA3       0.090000        1.0080           0
    7092 QQQ  444  NMP  H3   HGA3       0.090000        1.0080           0
    7093 QQQ  444  NMP  N2   NG2R53    -0.098000       14.0070           0
    7094 QQQ  444  NMP  C3   CG3C52    -0.077000       12.0110           0
    7095 QQQ  444  NMP  H4   HGA2       0.090000        1.0080           0
    7096 QQQ  444  NMP  H5   HGA2       0.090000        1.0080           0
    7097 QQQ  444  NMP  C4   CG3C52    -0.233000       12.0110           0
    7098 QQQ  444  NMP  H6   HGA2       0.090000        1.0080           0
    7099 QQQ  444  NMP  H7   HGA2       0.090000        1.0080           0
    7100 QQQ  444  NMP  C5   CG3C52    -0.027000       12.0110           0
    7101 QQQ  444  NMP  H8   HGA2       0.090000        1.0080           0
    7102 QQQ  444  NMP  H9   HGA2       0.090000        1.0080           0
    7103 QQQ  444  NMP  C6   CG2R53     0.286000       12.0110           0
    7104 QQQ  444  NMP  O7   OG2D1     -0.500000       15.9990           0
    7105 QQQ  445  NMP  C1   CG331     -0.161000       12.0110           0
    7106 QQQ  445  NMP  H1   HGA3       0.090000        1.0080           0
    7107 QQQ  445  NMP  H2   HGA3       0.090000        1.0080           0
    7108 QQQ  445  NMP  H3   HGA3       0.090000        1.0080           0
    7109 QQQ  445  NMP  N2   NG2R53    -0.098000       14.0070           0
    7110 QQQ  445  NMP  C3   CG3C52    -0.077000       12.0110           0
    7111 QQQ  445  NMP  H4   HGA2       0.090000        1.0080           0
    7112 QQQ  445  NMP  H5   HGA2       0.090000        1.0080           0
    7113 QQQ  445  NMP  C4   CG3C52    -0.233000       12.0110           0
    7114 QQQ  445  NMP  H6   HGA2       0.090000        1.0080           0
    7115 QQQ  445  NMP  H7   HGA2       0.090000        1.0080           0
    7116 QQQ  445  NMP  C5   CG3C52    -0.027000       12.0110           0
    7117 QQQ  445  NMP  H8   HGA2       0.090000        1.0080           0
    7118 QQQ  445  NMP  H9   HGA2       0.090000        1.0080           0
    7119 QQQ  445  NMP  C6   CG2R53     0.286000       12.0110           0
    7120 QQQ  445  NMP  O7   OG2D1     -0.500000       15.9990           0
    7121 QQQ  446  NMP  C1   CG331     -0.161000       12.0110           0
    7122 QQQ  446  NMP  H1   HGA3       0.090000        1.0080           0
    7123 QQQ  446  NMP  H2   HGA3       0.090000        1.0080           0
    7124 QQQ  446  NMP  H3   HGA3       0.090000        1.0080           0
    7125 QQQ  446  NMP  N2   NG2R53    -0.098000       14.0070           0
    7126 QQQ  446  NMP  C3   CG3C52    -0.077000       12.0110           0
    7127 QQQ  446  NMP  H4   HGA2       0.090000        1.0080           0
    7128 QQQ  446  NMP  H5   HGA2       0.090000        1.0080           0
    7129 QQQ  446  NMP  C4   CG3C52    -0.233000       12.0110           0
    7130 QQQ  446  NMP  H6   HGA2       0.090000        1.0080           0
    7131 QQQ  446  NMP  H7   HGA2       0.090000        1.0080           0
    7132 QQQ  446  NMP  C5   CG3C52    -0.027000       12.0110           0
    7133 QQQ  446  NMP  H8   HGA2       0.090000        1.0080           0
    7134 QQQ  446  NMP  H9   HGA2       0.090000        1.0080           0
    7135 QQQ  446  NMP  C6   CG2R53     0.286000       12.0110           0
    7136 QQQ  446  NMP  O7   OG2D1     -0.500000       15.9990           0
    7137 QQQ  447  NMP  C1   CG331     -0.161000       12.0110           0
    7138 QQQ  447  NMP  H1   HGA3       0.090000        1.0080           0
    7139 QQQ  447  NMP  H2   HGA3       0.090000        1.0080           0
    7140 QQQ  447  NMP  H3   HGA3       0.090000        1.0080           0
    7141 QQQ  447  NMP  N2   NG2R53    -0.098000       14.0070           0
    7142 QQQ  447  NMP  C3   CG3C52    -0.077000       12.0110           0
    7143 QQQ  447  NMP  H4   HGA2       0.090000        1.0080           0
    7144 QQQ  447  NMP  H5   HGA2       0.090000        1.0080           0
    7145 QQQ  447  NMP  C4   CG3C52    -0.233000       12.0110           0
    7146 QQQ  447  NMP  H6   HGA2       0.090000        1.0080           0
    7147 QQQ  447  NMP  H7   HGA2       0.090000        1.0080           0
    7148 QQQ  447  NMP  C5   CG3C52    -0.027000       12.0110           0
    7149 QQQ  447  NMP  H8   HGA2       0.090000        1.0080           0
    7150 QQQ  447  NMP  H9   HGA2       0.090000        1.0080           0
    7151 QQQ  447  NMP  C6   CG2R53     0.286000       12.0110           0
    7152 QQQ  447  NMP  O7   OG2D1     -0.500000       15.9990           0
    7153 QQQ  448  NMP  C1   CG331     -0.161000       12.0110           0
    7154 QQQ  448  NMP  H1   HGA3       0.090000        1.0080           0
    7155 QQQ  448  NMP  H2   HGA3       0.090000        1.0080           0
    7156 QQQ  448  NMP  H3   HGA3       0.090000        1.0080           0
    7157 QQQ  448  NMP  N2   NG2R53    -0.098000       14.0070           0
    7158 QQQ  448  NMP  C3   CG3C52    -0.077000       12.0110           0
    7159 QQQ  448  NMP  H4   HGA2       0.090000        1.0080           0
    7160 QQQ  448  NMP  H5   HGA2       0.090000        1.0080           0
    7161 QQQ  448  NMP  C4   CG3C52    -0.233000       12.0110           0
    7162 QQQ  448  NMP  H6   HGA2       0.090000        1.0080           0
    7163 QQQ  448  NMP  H7   HGA2       0.090000        1.0080           0
    7164 QQQ  448  NMP  C5   CG3C52    -0.027000       12.0110           0
    7165 QQQ  448  NMP  H8   HGA2       0.090000        1.0080           0
    7166 QQQ  448  NMP  H9   HGA2       0.090000        1.0080           0
    7167 QQQ  448  NMP  C6   CG2R53     0.286000       12.0110           0
    7168 QQQ  448  NMP  O7   OG2D1     -0.500000       15.9990           0
    7169 QQQ  449  NMP  C1   CG331     -0.161000       12.0110           0
    7170 QQQ  449  NMP  H1   HGA3       0.090000        1.0080           0
    7171 QQQ  449  NMP  H2   HGA3       0.090000        1.0080           0
    7172 QQQ  449  NMP  H3   HGA3       0.090000        1.0080           0
    7173 QQQ  449  NMP  N2   NG2R53    -0.098000       14.0070           0
    7174 QQQ  449  NMP  C3   CG3C52    -0.077000       12.0110           0
    7175 QQQ  449  NMP  H4   HGA2       0.090000        1.0080           0
    7176 QQQ  449  NMP  H5   HGA2       0.090000        1.0080           0
    7177 QQQ  449  NMP  C4   CG3C52    -0.233000       12.0110           0
    7178 QQQ  449  NMP  H6   HGA2       0.090000        1.0080           0
    7179 QQQ  449  NMP  H7   HGA2       0.090000        1.0080           0
    7180 QQQ  449  NMP  C5   CG3C52    -0.027000       12.0110           0
    7181 QQQ  449  NMP  H8   HGA2       0.090000        1.0080           0
    7182 QQQ  449  NMP  H9   HGA2       0.090000        1.0080           0
    7183 QQQ  449  NMP  C6   CG2R53     0.286000       12.0110           0
    7184 QQQ  449  NMP  O7   OG2D1     -0.500000       15.9990           0
    7185 QQQ  450  NMP  C1   CG331     -0.161000       12.0110           0
    7186 QQQ  450  NMP  H1   HGA3       0.090000        1.0080           0
    7187 QQQ  450  NMP  H2   HGA3       0.090000        1.0080           0
    7188 QQQ  450  NMP  H3   HGA3       0.090000        1.0080           0
    7189 QQQ  450  NMP  N2   NG2R53    -0.098000       14.0070           0
    7190 QQQ  450  NMP  C3   CG3C52    -0.077000       12.0110           0
    7191 QQQ  450  NMP  H4   HGA2       0.090000        1.0080           0
    7192 QQQ  450  NMP  H5   HGA2       0.090000        1.0080           0
    7193 QQQ  450  NMP  C4   CG3C52    -0.233000       12.0110           0
    7194 QQQ  450  NMP  H6   HGA2       0.090000        1.0080           0
    7195 QQQ  450  NMP  H7   HGA2       0.090000        1.0080           0
    7196 QQQ  450  NMP  C5   CG3C52    -0.027000       12.0110           0
    7197 QQQ  450  NMP  H8   HGA2       0.090000        1.0080           0
    7198 QQQ  450  NMP  H9   HGA2       0.090000        1.0080           0
    7199 QQQ  450  NMP  C6   CG2R53     0.286000       12.0110           0
    7200 QQQ  450  NMP  O7   OG2D1     -0.500000       15.9990           0
    7201 QQQ  451  NMP  C1   CG331     -0.161000       12.0110           0
    7202 QQQ  451  NMP  H1   HGA3       0.090000        1.0080           0
    7203 QQQ  451  NMP  H2   HGA3       0.090000        1.0080           0
    7204 QQQ  451  NMP  H3   HGA3       0.090000        1.0080           0
    7205 QQQ  451  NMP  N2   NG2R53    -0.098000       14.0070           0
    7206 QQQ  451  NMP  C3   CG3C52    -0.077000       12.0110           0
    7207 QQQ  451  NMP  H4   HGA2       0.090000        1.0080           0
    7208 QQQ  451  NMP  H5   HGA2       0.090000        1.0080           0
    7209 QQQ  451  NMP  C4   CG3C52    -0.233000       12.0110           0
    7210 QQQ  451  NMP  H6   HGA2       0.090000        1.0080           0
    7211 QQQ  451  NMP  H7   HGA2       0.090000        1.0080           0
    7212 QQQ  451  NMP  C5   CG3C52    -0.027000       12.0110           0
    7213 QQQ  451  NMP  H8   HGA2       0.090000        1.0080           0
    7214 QQQ  451  NMP  H9   HGA2       0.090000        1.0080           0
    7215 QQQ  451  NMP  C6   CG2R53     0.286000       12.0110           0
    7216 QQQ  451  NMP  O7   OG2D1     -0.500000       15.9990           0
    7217 QQQ  452  NMP  C1   CG331     -0.161000       12.0110           0
    7218 QQQ  452  NMP  H1   HGA3       0.090000        1.0080           0
    7219 QQQ  452  NMP  H2   HGA3       0.090000        1.0080           0
    7220 QQQ  452  NMP  H3   HGA3       0.090000        1.0080           0
    7221 QQQ  452  NMP  N2   NG2R53    -0.098000       14.0070           0
    7222 QQQ  452  NMP  C3   CG3C52    -0.077000       12.0110           0
    7223 QQQ  452  NMP  H4   HGA2       0.090000        1.0080           0
    7224 QQQ  452  NMP  H5   HGA2       0.090000        1.0080           0
    7225 QQQ  452  NMP  C4   CG3C52    -0.233000       12.0110           0
    7226 QQQ  452  NMP  H6   HGA2       0.090000        1.0080           0
    7227 QQQ  452  NMP  H7   HGA2       0.090000        1.0080           0
    7228 QQQ  452  NMP  C5   CG3C52    -0.027000       12.0110           0
    7229 QQQ  452  NMP  H8   HGA2       0.090000        1.0080           0
    7230 QQQ  452  NMP  H9   HGA2       0.090000        1.0080           0
    7231 QQQ  452  NMP  C6   CG2R53     0.286000       12.0110           0
    7232 QQQ  452  NMP  O7   OG2D1     -0.500000       15.9990           0
    7233 QQQ  453  NMP  C1   CG331     -0.161000       12.0110           0
    7234 QQQ  453  NMP  H1   HGA3       0.090000        1.0080           0
    7235 QQQ  453  NMP  H2   HGA3       0.090000        1.0080           0
    7236 QQQ  453  NMP  H3   HGA3       0.090000        1.0080           0
    7237 QQQ  453  NMP  N2   NG2R53    -0.098000       14.0070           0
    7238 QQQ  453  NMP  C3   CG3C52    -0.077000       12.0110           0
    7239 QQQ  453  NMP  H4   HGA2       0.090000        1.0080           0
    7240 QQQ  453  NMP  H5   HGA2       0.090000        1.0080           0
    7241 QQQ  453  NMP  C4   CG3C52    -0.233000       12.0110           0
    7242 QQQ  453  NMP  H6   HGA2       0.090000        1.0080           0
    7243 QQQ  453  NMP  H7   HGA2       0.090000        1.0080           0
    7244 QQQ  453  NMP  C5   CG3C52    -0.027000       12.0110           0
    7245 QQQ  453  NMP  H8   HGA2       0.090000        1.0080           0
    7246 QQQ  453  NMP  H9   HGA2       0.090000        1.0080           0
    7247 QQQ  453  NMP  C6   CG2R53     0.286000       12.0110           0
    7248 QQQ  453  NMP  O7   OG2D1     -0.500000       15.9990           0
    7249 QQQ  454  NMP  C1   CG331     -0.161000       12.0110           0
    7250 QQQ  454  NMP  H1   HGA3       0.090000        1.0080           0
    7251 QQQ  454  NMP  H2   HGA3       0.090000        1.0080           0
    7252 QQQ  454  NMP  H3   HGA3       0.090000        1.0080           0
    7253 QQQ  454  NMP  N2   NG2R53    -0.098000       14.0070           0
    7254 QQQ  454  NMP  C3   CG3C52    -0.077000       12.0110           0
    7255 QQQ  454  NMP  H4   HGA2       0.090000        1.0080           0
    7256 QQQ  454  NMP  H5   HGA2       0.090000        1.0080           0
    7257 QQQ  454  NMP  C4   CG3C52    -0.233000       12.0110           0
    7258 QQQ  454  NMP  H6   HGA2       0.090000        1.0080           0
    7259 QQQ  454  NMP  H7   HGA2       0.090000        1.0080           0
    7260 QQQ  454  NMP  C5   CG3C52    -0.027000       12.0110           0
    7261 QQQ  454  NMP  H8   HGA2       0.090000        1.0080           0
    7262 QQQ  454  NMP  H9   HGA2       0.090000        1.0080           0
    7263 QQQ  454  NMP  C6   CG2R53     0.286000       12.0110           0
    7264 QQQ  454  NMP  O7   OG2D1     -0.500000       15.9990           0
    7265 QQQ  455  NMP  C1   CG331     -0.161000       12.0110           0
    7266 QQQ  455  NMP  H1   HGA3       0.090000        1.0080           0
    7267 QQQ  455  NMP  H2   HGA3       0.090000        1.0080           0
    7268 QQQ  455  NMP  H3   HGA3       0.090000        1.0080           0
    7269 QQQ  455  NMP  N2   NG2R53    -0.098000       14.0070           0
    7270 QQQ  455  NMP  C3   CG3C52    -0.077000       12.0110           0
    7271 QQQ  455  NMP  H4   HGA2       0.090000        1.0080           0
    7272 QQQ  455  NMP  H5   HGA2       0.090000        1.0080           0
    7273 QQQ  455  NMP  C4   CG3C52    -0.233000       12.0110           0
    7274 QQQ  455  NMP  H6   HGA2       0.090000        1.0080           0
    7275 QQQ  455  NMP  H7   HGA2       0.090000        1.0080           0
    7276 QQQ  455  NMP  C5   CG3C52    -0.027000       12.0110           0
    7277 QQQ  455  NMP  H8   HGA2       0.090000        1.0080           0
    7278 QQQ  455  NMP  H9   HGA2       0.090000        1.0080           0
    7279 QQQ  455  NMP  C6   CG2R53     0.286000       12.0110           0
    7280 QQQ  455  NMP  O7   OG2D1     -0.500000       15.9990           0
    7281 QQQ  456  NMP  C1   CG331     -0.161000       12.0110           0
    7282 QQQ  456  NMP  H1   HGA3       0.090000        1.0080           0
    7283 QQQ  456  NMP  H2   HGA3       0.090000        1.0080           0
    7284 QQQ  456  NMP  H3   HGA3       0.090000        1.0080           0
    7285 QQQ  456  NMP  N2   NG2R53    -0.098000       14.0070           0
    7286 QQQ  456  NMP  C3   CG3C52    -0.077000       12.0110           0
    7287 QQQ  456  NMP  H4   HGA2       0.090000        1.0080           0
    7288 QQQ  456  NMP  H5   HGA2       0.090000        1.0080           0
    7289 QQQ  456  NMP  C4   CG3C52    -0.233000       12.0110           0
    7290 QQQ  456  NMP  H6   HGA2       0.090000        1.0080           0
    7291 QQQ  456  NMP  H7   HGA2       0.090000        1.0080           0
    7292 QQQ  456  NMP  C5   CG3C52    -0.027000       12.0110           0
    7293 QQQ  456  NMP  H8   HGA2       0.090000        1.0080           0
    7294 QQQ  456  NMP  H9   HGA2       0.090000        1.0080           0
    7295 QQQ  456  NMP  C6   CG2R53     0.286000       12.0110           0
    7296 QQQ  456  NMP  O7   OG2D1     -0.500000       15.9990           0
    7297 QQQ  457  NMP  C1   CG331     -0.161000       12.0110           0
    7298 QQQ  457  NMP  H1   HGA3       0.090000        1.0080           0
    7299 QQQ  457  NMP  H2   HGA3       0.090000        1.0080           0
    7300 QQQ  457  NMP  H3   HGA3       0.090000        1.0080           0
    7301 QQQ  457  NMP  N2   NG2R53    -0.098000       14.0070           0
    7302 QQQ  457  NMP  C3   CG3C52    -0.077000       12.0110           0
    7303 QQQ  457  NMP  H4   HGA2       0.090000        1.0080           0
    7304 QQQ  457  NMP  H5   HGA2       0.090000        1.0080           0
    7305 QQQ  457  NMP  C4   CG3C52    -0.233000       12.0110           0
    7306 QQQ  457  NMP  H6   HGA2       0.090000        1.0080           0
    7307 QQQ  457  NMP  H7   HGA2       0.090000        1.0080           0
    7308 QQQ  457  NMP  C5   CG3C52    -0.027000       12.0110           0
    7309 QQQ  457  NMP  H8   HGA2       0.090000        1.0080           0
    7310 QQQ  457  NMP  H9   HGA2       0.090000        1.0080           0
    7311 QQQ  457  NMP  C6   CG2R53     0.286000       12.0110           0
    7312 QQQ  457  NMP  O7   OG2D1     -0.500000       15.9990           0
    7313 QQQ  458  NMP  C1   CG331     -0.161000       12.0110           0
    7314 QQQ  458  NMP  H1   HGA3       0.090000        1.0080           0
    7315 QQQ  458  NMP  H2   HGA3       0.090000        1.0080           0
    7316 QQQ  458  NMP  H3   HGA3       0.090000        1.0080           0
    7317 QQQ  458  NMP  N2   NG2R53    -0.098000       14.0070           0
    7318 QQQ  458  NMP  C3   CG3C52    -0.077000       12.0110           0
    7319 QQQ  458  NMP  H4   HGA2       0.090000        1.0080           0
    7320 QQQ  458  NMP  H5   HGA2       0.090000        1.0080           0
    7321 QQQ  458  NMP  C4   CG3C52    -0.233000       12.0110           0
    7322 QQQ  458  NMP  H6   HGA2       0.090000        1.0080           0
    7323 QQQ  458  NMP  H7   HGA2       0.090000        1.0080           0
    7324 QQQ  458  NMP  C5   CG3C52    -0.027000       12.0110           0
    7325 QQQ  458  NMP  H8   HGA2       0.090000        1.0080           0
    7326 QQQ  458  NMP  H9   HGA2       0.090000        1.0080           0
    7327 QQQ  458  NMP  C6   CG2R53     0.286000       12.0110           0
    7328 QQQ  458  NMP  O7   OG2D1     -0.500000       15.9990           0
    7329 QQQ  459  NMP  C1   CG331     -0.161000       12.0110           0
    7330 QQQ  459  NMP  H1   HGA3       0.090000        1.0080           0
    7331 QQQ  459  NMP  H2   HGA3       0.090000        1.0080           0
    7332 QQQ  459  NMP  H3   HGA3       0.090000        1.0080           0
    7333 QQQ  459  NMP  N2   NG2R53    -0.098000       14.0070           0
    7334 QQQ  459  NMP  C3   CG3C52    -0.077000       12.0110           0
    7335 QQQ  459  NMP  H4   HGA2       0.090000        1.0080           0
    7336 QQQ  459  NMP  H5   HGA2       0.090000        1.0080           0
    7337 QQQ  459  NMP  C4   CG3C52    -0.233000       12.0110           0
    7338 QQQ  459  NMP  H6   HGA2       0.090000        1.0080           0
    7339 QQQ  459  NMP  H7   HGA2       0.090000        1.0080           0
    7340 QQQ  459  NMP  C5   CG3C52    -0.027000       12.0110           0
    7341 QQQ  459  NMP  H8   HGA2       0.090000        1.0080           0
    7342 QQQ  459  NMP  H9   HGA2       0.090000        1.0080           0
    7343 QQQ  459  NMP  C6   CG2R53     0.286000       12.0110           0
    7344 QQQ  459  NMP  O7   OG2D1     -0.500000       15.9990           0
    7345 QQQ  460  NMP  C1   CG331     -0.161000       12.0110           0
    7346 QQQ  460  NMP  H1   HGA3       0.090000        1.0080           0
    7347 QQQ  460  NMP  H2   HGA3       0.090000        1.0080           0
    7348 QQQ  460  NMP  H3   HGA3       0.090000        1.0080           0
    7349 QQQ  460  NMP  N2   NG2R53    -0.098000       14.0070           0
    7350 QQQ  460  NMP  C3   CG3C52    -0.077000       12.0110           0
    7351 QQQ  460  NMP  H4   HGA2       0.090000        1.0080           0
    7352 QQQ  460  NMP  H5   HGA2       0.090000        1.0080           0
    7353 QQQ  460  NMP  C4   CG3C52    -0.233000       12.0110           0
    7354 QQQ  460  NMP  H6   HGA2       0.090000        1.0080           0
    7355 QQQ  460  NMP  H7   HGA2       0.090000        1.0080           0
    7356 QQQ  460  NMP  C5   CG3C52    -0.027000       12.0110           0
    7357 QQQ  460  NMP  H8   HGA2       0.090000        1.0080           0
    7358 QQQ  460  NMP  H9   HGA2       0.090000        1.0080           0
    7359 QQQ  460  NMP  C6   CG2R53     0.286000       12.0110           0
    7360 QQQ  460  NMP  O7   OG2D1     -0.500000       15.9990           0
    7361 QQQ  461  NMP  C1   CG331     -0.161000       12.0110           0
    7362 QQQ  461  NMP  H1   HGA3       0.090000        1.0080           0
    7363 QQQ  461  NMP  H2   HGA3       0.090000        1.0080           0
    7364 QQQ  461  NMP  H3   HGA3       0.090000        1.0080           0
    7365 QQQ  461  NMP  N2   NG2R53    -0.098000       14.0070           0
    7366 QQQ  461  NMP  C3   CG3C52    -0.077000       12.0110           0
    7367 QQQ  461  NMP  H4   HGA2       0.090000        1.0080           0
    7368 QQQ  461  NMP  H5   HGA2       0.090000        1.0080           0
    7369 QQQ  461  NMP  C4   CG3C52    -0.233000       12.0110           0
    7370 QQQ  461  NMP  H6   HGA2       0.090000        1.0080           0
    7371 QQQ  461  NMP  H7   HGA2       0.090000        1.0080           0
    7372 QQQ  461  NMP  C5   CG3C52    -0.027000       12.0110           0
    7373 QQQ  461  NMP  H8   HGA2       0.090000        1.0080           0
    7374 QQQ  461  NMP  H9   HGA2       0.090000        1.0080           0
    7375 QQQ  461  NMP  C6   CG2R53     0.286000       12.0110           0
    7376 QQQ  461  NMP  O7   OG2D1     -0.500000       15.9990           0
    7377 QQQ  462  NMP  C1   CG331     -0.161000       12.0110           0
    7378 QQQ  462  NMP  H1   HGA3       0.090000        1.0080           0
    7379 QQQ  462  NMP  H2   HGA3       0.090000        1.0080           0
    7380 QQQ  462  NMP  H3   HGA3       0.090000        1.0080           0
    7381 QQQ  462  NMP  N2   NG2R53    -0.098000       14.0070           0
    7382 QQQ  462  NMP  C3   CG3C52    -0.077000       12.0110           0
    7383 QQQ  462  NMP  H4   HGA2       0.090000        1.0080           0
    7384 QQQ  462  NMP  H5   HGA2       0.090000        1.0080           0
    7385 QQQ  462  NMP  C4   CG3C52    -0.233000       12.0110           0
    7386 QQQ  462  NMP  H6   HGA2       0.090000        1.0080           0
    7387 QQQ  462  NMP  H7   HGA2       0.090000        1.0080           0
    7388 QQQ  462  NMP  C5   CG3C52    -0.027000       12.0110           0
    7389 QQQ  462  NMP  H8   HGA2       0.090000        1.0080           0
    7390 QQQ  462  NMP  H9   HGA2       0.090000        1.0080           0
    7391 QQQ  462  NMP  C6   CG2R53     0.286000       12.0110           0
    7392 QQQ  462  NMP  O7   OG2D1     -0.500000       15.9990           0
    7393 QQQ  463  NMP  C1   CG331     -0.161000       12.0110           0
    7394 QQQ  463  NMP  H1   HGA3       0.090000        1.0080           0
    7395 QQQ  463  NMP  H2   HGA3       0.090000        1.0080           0
    7396 QQQ  463  NMP  H3   HGA3       0.090000        1.0080           0
    7397 QQQ  463  NMP  N2   NG2R53    -0.098000       14.0070           0
    7398 QQQ  463  NMP  C3   CG3C52    -0.077000       12.0110           0
    7399 QQQ  463  NMP  H4   HGA2       0.090000        1.0080           0
    7400 QQQ  463  NMP  H5   HGA2       0.090000        1.0080           0
    7401 QQQ  463  NMP  C4   CG3C52    -0.233000       12.0110           0
    7402 QQQ  463  NMP  H6   HGA2       0.090000        1.0080           0
    7403 QQQ  463  NMP  H7   HGA2       0.090000        1.0080           0
    7404 QQQ  463  NMP  C5   CG3C52    -0.027000       12.0110           0
    7405 QQQ  463  NMP  H8   HGA2       0.090000        1.0080           0
    7406 QQQ  463  NMP  H9   HGA2       0.090000        1.0080           0
    7407 QQQ  463  NMP  C6   CG2R53     0.286000       12.0110           0
    7408 QQQ  463  NMP  O7   OG2D1     -0.500000       15.9990           0
    7409 QQQ  464  NMP  C1   CG331     -0.161000       12.0110           0
    7410 QQQ  464  NMP  H1   HGA3       0.090000        1.0080           0
    7411 QQQ  464  NMP  H2   HGA3       0.090000        1.0080           0
    7412 QQQ  464  NMP  H3   HGA3       0.090000        1.0080           0
    7413 QQQ  464  NMP  N2   NG2R53    -0.098000       14.0070           0
    7414 QQQ  464  NMP  C3   CG3C52    -0.077000       12.0110           0
    7415 QQQ  464  NMP  H4   HGA2       0.090000        1.0080           0
    7416 QQQ  464  NMP  H5   HGA2       0.090000        1.0080           0
    7417 QQQ  464  NMP  C4   CG3C52    -0.233000       12.0110           0
    7418 QQQ  464  NMP  H6   HGA2       0.090000        1.0080           0
    7419 QQQ  464  NMP  H7   HGA2       0.090000        1.0080           0
    7420 QQQ  464  NMP  C5   CG3C52    -0.027000       12.0110           0
    7421 QQQ  464  NMP  H8   HGA2       0.090000        1.0080           0
    7422 QQQ  464  NMP  H9   HGA2       0.090000        1.0080           0
    7423 QQQ  464  NMP  C6   CG2R53     0.286000       12.0110           0
    7424 QQQ  464  NMP  O7   OG2D1     -0.500000       15.9990           0
    7425 QQQ  465  NMP  C1   CG331     -0.161000       12.0110           0
    7426 QQQ  465  NMP  H1   HGA3       0.090000        1.0080           0
    7427 QQQ  465  NMP  H2   HGA3       0.090000        1.0080           0
    7428 QQQ  465  NMP  H3   HGA3       0.090000        1.0080           0
    7429 QQQ  465  NMP  N2   NG2R53    -0.098000       14.0070           0
    7430 QQQ  465  NMP  C3   CG3C52    -0.077000       12.0110           0
    7431 QQQ  465  NMP  H4   HGA2       0.090000        1.0080           0
    7432 QQQ  465  NMP  H5   HGA2       0.090000        1.0080           0
    7433 QQQ  465  NMP  C4   CG3C52    -0.233000       12.0110           0
    7434 QQQ  465  NMP  H6   HGA2       0.090000        1.0080           0
    7435 QQQ  465  NMP  H7   HGA2       0.090000        1.0080           0
    7436 QQQ  465  NMP  C5   CG3C52    -0.027000       12.0110           0
    7437 QQQ  465  NMP  H8   HGA2       0.090000        1.0080           0
    7438 QQQ  465  NMP  H9   HGA2       0.090000        1.0080           0
    7439 QQQ  465  NMP  C6   CG2R53     0.286000       12.0110           0
    7440 QQQ  465  NMP  O7   OG2D1     -0.500000       15.9990           0
    7441 QQQ  466  NMP  C1   CG331     -0.161000       12.0110           0
    7442 QQQ  466  NMP  H1   HGA3       0.090000        1.0080           0
    7443 QQQ  466  NMP  H2   HGA3       0.090000        1.0080           0
    7444 QQQ  466  NMP  H3   HGA3       0.090000        1.0080           0
    7445 QQQ  466  NMP  N2   NG2R53    -0.098000       14.0070           0
    7446 QQQ  466  NMP  C3   CG3C52    -0.077000       12.0110           0
    7447 QQQ  466  NMP  H4   HGA2       0.090000        1.0080           0
    7448 QQQ  466  NMP  H5   HGA2       0.090000        1.0080           0
    7449 QQQ  466  NMP  C4   CG3C52    -0.233000       12.0110           0
    7450 QQQ  466  NMP  H6   HGA2       0.090000        1.0080           0
    7451 QQQ  466  NMP  H7   HGA2       0.090000        1.0080           0
    7452 QQQ  466  NMP  C5   CG3C52    -0.027000       12.0110           0
    7453 QQQ  466  NMP  H8   HGA2       0.090000        1.0080           0
    7454 QQQ  466  NMP  H9   HGA2       0.090000        1.0080           0
    7455 QQQ  466  NMP  C6   CG2R53     0.286000       12.0110           0
    7456 QQQ  466  NMP  O7   OG2D1     -0.500000       15.9990           0
    7457 QQQ  467  NMP  C1   CG331     -0.161000       12.0110           0
    7458 QQQ  467  NMP  H1   HGA3       0.090000        1.0080           0
    7459 QQQ  467  NMP  H2   HGA3       0.090000        1.0080           0
    7460 QQQ  467  NMP  H3   HGA3       0.090000        1.0080           0
    7461 QQQ  467  NMP  N2   NG2R53    -0.098000       14.0070           0
    7462 QQQ  467  NMP  C3   CG3C52    -0.077000       12.0110           0
    7463 QQQ  467  NMP  H4   HGA2       0.090000        1.0080           0
    7464 QQQ  467  NMP  H5   HGA2       0.090000        1.0080           0
    7465 QQQ  467  NMP  C4   CG3C52    -0.233000       12.0110           0
    7466 QQQ  467  NMP  H6   HGA2       0.090000        1.0080           0
    7467 QQQ  467  NMP  H7   HGA2       0.090000        1.0080           0
    7468 QQQ  467  NMP  C5   CG3C52    -0.027000       12.0110           0
    7469 QQQ  467  NMP  H8   HGA2       0.090000        1.0080           0
    7470 QQQ  467  NMP  H9   HGA2       0.090000        1.0080           0
    7471 QQQ  467  NMP  C6   CG2R53     0.286000       12.0110           0
    7472 QQQ  467  NMP  O7   OG2D1     -0.500000       15.9990           0
    7473 QQQ  468  NMP  C1   CG331     -0.161000       12.0110           0
    7474 QQQ  468  NMP  H1   HGA3       0.090000        1.0080           0
    7475 QQQ  468  NMP  H2   HGA3       0.090000        1.0080           0
    7476 QQQ  468  NMP  H3   HGA3       0.090000        1.0080           0
    7477 QQQ  468  NMP  N2   NG2R53    -0.098000       14.0070           0
    7478 QQQ  468  NMP  C3   CG3C52    -0.077000       12.0110           0
    7479 QQQ  468  NMP  H4   HGA2       0.090000        1.0080           0
    7480 QQQ  468  NMP  H5   HGA2       0.090000        1.0080           0
    7481 QQQ  468  NMP  C4   CG3C52    -0.233000       12.0110           0
    7482 QQQ  468  NMP  H6   HGA2       0.090000        1.0080           0
    7483 QQQ  468  NMP  H7   HGA2       0.090000        1.0080           0
    7484 QQQ  468  NMP  C5   CG3C52    -0.027000       12.0110           0
    7485 QQQ  468  NMP  H8   HGA2       0.090000        1.0080           0
    7486 QQQ  468  NMP  H9   HGA2       0.090000        1.0080           0
    7487 QQQ  468  NMP  C6   CG2R53     0.286000       12.0110           0
    7488 QQQ  468  NMP  O7   OG2D1     -0.500000       15.9990           0
    7489 QQQ  469  NMP  C1   CG331     -0.161000       12.0110           0
    7490 QQQ  469  NMP  H1   HGA3       0.090000        1.0080           0
    7491 QQQ  469  NMP  H2   HGA3       0.090000        1.0080           0
    7492 QQQ  469  NMP  H3   HGA3       0.090000        1.0080           0
    7493 QQQ  469  NMP  N2   NG2R53    -0.098000       14.0070           0
    7494 QQQ  469  NMP  C3   CG3C52    -0.077000       12.0110           0
    7495 QQQ  469  NMP  H4   HGA2       0.090000        1.0080           0
    7496 QQQ  469  NMP  H5   HGA2       0.090000        1.0080           0
    7497 QQQ  469  NMP  C4   CG3C52    -0.233000       12.0110           0
    7498 QQQ  469  NMP  H6   HGA2       0.090000        1.0080           0
    7499 QQQ  469  NMP  H7   HGA2       0.090000        1.0080           0
    7500 QQQ  469  NMP  C5   CG3C52    -0.027000       12.0110           0
    7501 QQQ  469  NMP  H8   HGA2       0.090000        1.0080           0
    7502 QQQ  469  NMP  H9   HGA2       0.090000        1.0080           0
    7503 QQQ  469  NMP  C6   CG2R53     0.286000       12.0110           0
    7504 QQQ  469  NMP  O7   OG2D1     -0.500000       15.9990           0
    7505 QQQ  470  NMP  C1   CG331     -0.161000       12.0110           0
    7506 QQQ  470  NMP  H1   HGA3       0.090000        1.0080           0
    7507 QQQ  470  NMP  H2   HGA3       0.090000        1.0080           0
    7508 QQQ  470  NMP  H3   HGA3       0.090000        1.0080           0
    7509 QQQ  470  NMP  N2   NG2R53    -0.098000       14.0070           0
    7510 QQQ  470  NMP  C3   CG3C52    -0.077000       12.0110           0
    7511 QQQ  470  NMP  H4   HGA2       0.090000        1.0080           0
    7512 QQQ  470  NMP  H5   HGA2       0.090000        1.0080           0
    7513 QQQ  470  NMP  C4   CG3C52    -0.233000       12.0110           0
    7514 QQQ  470  NMP  H6   HGA2       0.090000        1.0080           0
    7515 QQQ  470  NMP  H7   HGA2       0.090000        1.0080           0
    7516 QQQ  470  NMP  C5   CG3C52    -0.027000       12.0110           0
    7517 QQQ  470  NMP  H8   HGA2       0.090000        1.0080           0
    7518 QQQ  470  NMP  H9   HGA2       0.090000        1.0080           0
    7519 QQQ  470  NMP  C6   CG2R53     0.286000       12.0110           0
    7520 QQQ  470  NMP  O7   OG2D1     -0.500000       15.9990           0
    7521 QQQ  471  NMP  C1   CG331     -0.161000       12.0110           0
    7522 QQQ  471  NMP  H1   HGA3       0.090000        1.0080           0
    7523 QQQ  471  NMP  H2   HGA3       0.090000        1.0080           0
    7524 QQQ  471  NMP  H3   HGA3       0.090000        1.0080           0
    7525 QQQ  471  NMP  N2   NG2R53    -0.098000       14.0070           0
    7526 QQQ  471  NMP  C3   CG3C52    -0.077000       12.0110           0
    7527 QQQ  471  NMP  H4   HGA2       0.090000        1.0080           0
    7528 QQQ  471  NMP  H5   HGA2       0.090000        1.0080           0
    7529 QQQ  471  NMP  C4   CG3C52    -0.233000       12.0110           0
    7530 QQQ  471  NMP  H6   HGA2       0.090000        1.0080           0
    7531 QQQ  471  NMP  H7   HGA2       0.090000        1.0080           0
    7532 QQQ  471  NMP  C5   CG3C52    -0.027000       12.0110           0
    7533 QQQ  471  NMP  H8   HGA2       0.090000        1.0080           0
    7534 QQQ  471  NMP  H9   HGA2       0.090000        1.0080           0
    7535 QQQ  471  NMP  C6   CG2R53     0.286000       12.0110           0
    7536 QQQ  471  NMP  O7   OG2D1     -0.500000       15.9990           0
    7537 QQQ  472  NMP  C1   CG331     -0.161000       12.0110           0
    7538 QQQ  472  NMP  H1   HGA3       0.090000        1.0080           0
    7539 QQQ  472  NMP  H2   HGA3       0.090000        1.0080           0
    7540 QQQ  472  NMP  H3   HGA3       0.090000        1.0080           0
    7541 QQQ  472  NMP  N2   NG2R53    -0.098000       14.0070           0
    7542 QQQ  472  NMP  C3   CG3C52    -0.077000       12.0110           0
    7543 QQQ  472  NMP  H4   HGA2       0.090000        1.0080           0
    7544 QQQ  472  NMP  H5   HGA2       0.090000        1.0080           0
    7545 QQQ  472  NMP  C4   CG3C52    -0.233000       12.0110           0
    7546 QQQ  472  NMP  H6   HGA2       0.090000        1.0080           0
    7547 QQQ  472  NMP  H7   HGA2       0.090000        1.0080           0
    7548 QQQ  472  NMP  C5   CG3C52    -0.027000       12.0110           0
    7549 QQQ  472  NMP  H8   HGA2       0.090000        1.0080           0
    7550 QQQ  472  NMP  H9   HGA2       0.090000        1.0080           0
    7551 QQQ  472  NMP  C6   CG2R53     0.286000       12.0110           0
    7552 QQQ  472  NMP  O7   OG2D1     -0.500000       15.9990           0
    7553 QQQ  473  NMP  C1   CG331     -0.161000       12.0110           0
    7554 QQQ  473  NMP  H1   HGA3       0.090000        1.0080           0
    7555 QQQ  473  NMP  H2   HGA3       0.090000        1.0080           0
    7556 QQQ  473  NMP  H3   HGA3       0.090000        1.0080           0
    7557 QQQ  473  NMP  N2   NG2R53    -0.098000       14.0070           0
    7558 QQQ  473  NMP  C3   CG3C52    -0.077000       12.0110           0
    7559 QQQ  473  NMP  H4   HGA2       0.090000        1.0080           0
    7560 QQQ  473  NMP  H5   HGA2       0.090000        1.0080           0
    7561 QQQ  473  NMP  C4   CG3C52    -0.233000       12.0110           0
    7562 QQQ  473  NMP  H6   HGA2       0.090000        1.0080           0
    7563 QQQ  473  NMP  H7   HGA2       0.090000        1.0080           0
    7564 QQQ  473  NMP  C5   CG3C52    -0.027000       12.0110           0
    7565 QQQ  473  NMP  H8   HGA2       0.090000        1.0080           0
    7566 QQQ  473  NMP  H9   HGA2       0.090000        1.0080           0
    7567 QQQ  473  NMP  C6   CG2R53     0.286000       12.0110           0
    7568 QQQ  473  NMP  O7   OG2D1     -0.500000       15.9990           0
    7569 QQQ  474  NMP  C1   CG331     -0.161000       12.0110           0
    7570 QQQ  474  NMP  H1   HGA3       0.090000        1.0080           0
    7571 QQQ  474  NMP  H2   HGA3       0.090000        1.0080           0
    7572 QQQ  474  NMP  H3   HGA3       0.090000        1.0080           0
    7573 QQQ  474  NMP  N2   NG2R53    -0.098000       14.0070           0
    7574 QQQ  474  NMP  C3   CG3C52    -0.077000       12.0110           0
    7575 QQQ  474  NMP  H4   HGA2       0.090000        1.0080           0
    7576 QQQ  474  NMP  H5   HGA2       0.090000        1.0080           0
    7577 QQQ  474  NMP  C4   CG3C52    -0.233000       12.0110           0
    7578 QQQ  474  NMP  H6   HGA2       0.090000        1.0080           0
    7579 QQQ  474  NMP  H7   HGA2       0.090000        1.0080           0
    7580 QQQ  474  NMP  C5   CG3C52    -0.027000       12.0110           0
    7581 QQQ  474  NMP  H8   HGA2       0.090000        1.0080           0
    7582 QQQ  474  NMP  H9   HGA2       0.090000        1.0080           0
    7583 QQQ  474  NMP  C6   CG2R53     0.286000       12.0110           0
    7584 QQQ  474  NMP  O7   OG2D1     -0.500000       15.9990           0
    7585 QQQ  475  NMP  C1   CG331     -0.161000       12.0110           0
    7586 QQQ  475  NMP  H1   HGA3       0.090000        1.0080           0
    7587 QQQ  475  NMP  H2   HGA3       0.090000        1.0080           0
    7588 QQQ  475  NMP  H3   HGA3       0.090000        1.0080           0
    7589 QQQ  475  NMP  N2   NG2R53    -0.098000       14.0070           0
    7590 QQQ  475  NMP  C3   CG3C52    -0.077000       12.0110           0
    7591 QQQ  475  NMP  H4   HGA2       0.090000        1.0080           0
    7592 QQQ  475  NMP  H5   HGA2       0.090000        1.0080           0
    7593 QQQ  475  NMP  C4   CG3C52    -0.233000       12.0110           0
    7594 QQQ  475  NMP  H6   HGA2       0.090000        1.0080           0
    7595 QQQ  475  NMP  H7   HGA2       0.090000        1.0080           0
    7596 QQQ  475  NMP  C5   CG3C52    -0.027000       12.0110           0
    7597 QQQ  475  NMP  H8   HGA2       0.090000        1.0080           0
    7598 QQQ  475  NMP  H9   HGA2       0.090000        1.0080           0
    7599 QQQ  475  NMP  C6   CG2R53     0.286000       12.0110           0
    7600 QQQ  475  NMP  O7   OG2D1     -0.500000       15.9990           0
    7601 QQQ  476  NMP  C1   CG331     -0.161000       12.0110           0
    7602 QQQ  476  NMP  H1   HGA3       0.090000        1.0080           0
    7603 QQQ  476  NMP  H2   HGA3       0.090000        1.0080           0
    7604 QQQ  476  NMP  H3   HGA3       0.090000        1.0080           0
    7605 QQQ  476  NMP  N2   NG2R53    -0.098000       14.0070           0
    7606 QQQ  476  NMP  C3   CG3C52    -0.077000       12.0110           0
    7607 QQQ  476  NMP  H4   HGA2       0.090000        1.0080           0
    7608 QQQ  476  NMP  H5   HGA2       0.090000        1.0080           0
    7609 QQQ  476  NMP  C4   CG3C52    -0.233000       12.0110           0
    7610 QQQ  476  NMP  H6   HGA2       0.090000        1.0080           0
    7611 QQQ  476  NMP  H7   HGA2       0.090000        1.0080           0
    7612 QQQ  476  NMP  C5   CG3C52    -0.027000       12.0110           0
    7613 QQQ  476  NMP  H8   HGA2       0.090000        1.0080           0
    7614 QQQ  476  NMP  H9   HGA2       0.090000        1.0080           0
    7615 QQQ  476  NMP  C6   CG2R53     0.286000       12.0110           0
    7616 QQQ  476  NMP  O7   OG2D1     -0.500000       15.9990           0
    7617 QQQ  477  NMP  C1   CG331     -0.161000       12.0110           0
    7618 QQQ  477  NMP  H1   HGA3       0.090000        1.0080           0
    7619 QQQ  477  NMP  H2   HGA3       0.090000        1.0080           0
    7620 QQQ  477  NMP  H3   HGA3       0.090000        1.0080           0
    7621 QQQ  477  NMP  N2   NG2R53    -0.098000       14.0070           0
    7622 QQQ  477  NMP  C3   CG3C52    -0.077000       12.0110           0
    7623 QQQ  477  NMP  H4   HGA2       0.090000        1.0080           0
    7624 QQQ  477  NMP  H5   HGA2       0.090000        1.0080           0
    7625 QQQ  477  NMP  C4   CG3C52    -0.233000       12.0110           0
    7626 QQQ  477  NMP  H6   HGA2       0.090000        1.0080           0
    7627 QQQ  477  NMP  H7   HGA2       0.090000        1.0080           0
    7628 QQQ  477  NMP  C5   CG3C52    -0.027000       12.0110           0
    7629 QQQ  477  NMP  H8   HGA2       0.090000        1.0080           0
    7630 QQQ  477  NMP  H9   HGA2       0.090000        1.0080           0
    7631 QQQ  477  NMP  C6   CG2R53     0.286000       12.0110           0
    7632 QQQ  477  NMP  O7   OG2D1     -0.500000       15.9990           0
    7633 QQQ  478  NMP  C1   CG331     -0.161000       12.0110           0
    7634 QQQ  478  NMP  H1   HGA3       0.090000        1.0080           0
    7635 QQQ  478  NMP  H2   HGA3       0.090000        1.0080           0
    7636 QQQ  478  NMP  H3   HGA3       0.090000        1.0080           0
    7637 QQQ  478  NMP  N2   NG2R53    -0.098000       14.0070           0
    7638 QQQ  478  NMP  C3   CG3C52    -0.077000       12.0110           0
    7639 QQQ  478  NMP  H4   HGA2       0.090000        1.0080           0
    7640 QQQ  478  NMP  H5   HGA2       0.090000        1.0080           0
    7641 QQQ  478  NMP  C4   CG3C52    -0.233000       12.0110           0
    7642 QQQ  478  NMP  H6   HGA2       0.090000        1.0080           0
    7643 QQQ  478  NMP  H7   HGA2       0.090000        1.0080           0
    7644 QQQ  478  NMP  C5   CG3C52    -0.027000       12.0110           0
    7645 QQQ  478  NMP  H8   HGA2       0.090000        1.0080           0
    7646 QQQ  478  NMP  H9   HGA2       0.090000        1.0080           0
    7647 QQQ  478  NMP  C6   CG2R53     0.286000       12.0110           0
    7648 QQQ  478  NMP  O7   OG2D1     -0.500000       15.9990           0
    7649 QQQ  479  NMP  C1   CG331     -0.161000       12.0110           0
    7650 QQQ  479  NMP  H1   HGA3       0.090000        1.0080           0
    7651 QQQ  479  NMP  H2   HGA3       0.090000        1.0080           0
    7652 QQQ  479  NMP  H3   HGA3       0.090000        1.0080           0
    7653 QQQ  479  NMP  N2   NG2R53    -0.098000       14.0070           0
    7654 QQQ  479  NMP  C3   CG3C52    -0.077000       12.0110           0
    7655 QQQ  479  NMP  H4   HGA2       0.090000        1.0080           0
    7656 QQQ  479  NMP  H5   HGA2       0.090000        1.0080           0
    7657 QQQ  479  NMP  C4   CG3C52    -0.233000       12.0110           0
    7658 QQQ  479  NMP  H6   HGA2       0.090000        1.0080           0
    7659 QQQ  479  NMP  H7   HGA2       0.090000        1.0080           0
    7660 QQQ  479  NMP  C5   CG3C52    -0.027000       12.0110           0
    7661 QQQ  479  NMP  H8   HGA2       0.090000        1.0080           0
    7662 QQQ  479  NMP  H9   HGA2       0.090000        1.0080           0
    7663 QQQ  479  NMP  C6   CG2R53     0.286000       12.0110           0
    7664 QQQ  479  NMP  O7   OG2D1     -0.500000       15.9990           0
    7665 QQQ  480  NMP  C1   CG331     -0.161000       12.0110           0
    7666 QQQ  480  NMP  H1   HGA3       0.090000        1.0080           0
    7667 QQQ  480  NMP  H2   HGA3       0.090000        1.0080           0
    7668 QQQ  480  NMP  H3   HGA3       0.090000        1.0080           0
    7669 QQQ  480  NMP  N2   NG2R53    -0.098000       14.0070           0
    7670 QQQ  480  NMP  C3   CG3C52    -0.077000       12.0110           0
    7671 QQQ  480  NMP  H4   HGA2       0.090000        1.0080           0
    7672 QQQ  480  NMP  H5   HGA2       0.090000        1.0080           0
    7673 QQQ  480  NMP  C4   CG3C52    -0.233000       12.0110           0
    7674 QQQ  480  NMP  H6   HGA2       0.090000        1.0080           0
    7675 QQQ  480  NMP  H7   HGA2       0.090000        1.0080           0
    7676 QQQ  480  NMP  C5   CG3C52    -0.027000       12.0110           0
    7677 QQQ  480  NMP  H8   HGA2       0.090000        1.0080           0
    7678 QQQ  480  NMP  H9   HGA2       0.090000        1.0080           0
    7679 QQQ  480  NMP  C6   CG2R53     0.286000       12.0110           0
    7680 QQQ  480  NMP  O7   OG2D1     -0.500000       15.9990           0
    7681 QQQ  481  NMP  C1   CG331     -0.161000       12.0110           0
    7682 QQQ  481  NMP  H1   HGA3       0.090000        1.0080           0
    7683 QQQ  481  NMP  H2   HGA3       0.090000        1.0080           0
    7684 QQQ  481  NMP  H3   HGA3       0.090000        1.0080           0
    7685 QQQ  481  NMP  N2   NG2R53    -0.098000       14.0070           0
    7686 QQQ  481  NMP  C3   CG3C52    -0.077000       12.0110           0
    7687 QQQ  481  NMP  H4   HGA2       0.090000        1.0080           0
    7688 QQQ  481  NMP  H5   HGA2       0.090000        1.0080           0
    7689 QQQ  481  NMP  C4   CG3C52    -0.233000       12.0110           0
    7690 QQQ  481  NMP  H6   HGA2       0.090000        1.0080           0
    7691 QQQ  481  NMP  H7   HGA2       0.090000        1.0080           0
    7692 QQQ  481  NMP  C5   CG3C52    -0.027000       12.0110           0
    7693 QQQ  481  NMP  H8   HGA2       0.090000        1.0080           0
    7694 QQQ  481  NMP  H9   HGA2       0.090000        1.0080           0
    7695 QQQ  481  NMP  C6   CG2R53     0.286000       12.0110           0
    7696 QQQ  481  NMP  O7   OG2D1     -0.500000       15.9990           0
    7697 QQQ  482  NMP  C1   CG331     -0.161000       12.0110           0
    7698 QQQ  482  NMP  H1   HGA3       0.090000        1.0080           0
    7699 QQQ  482  NMP  H2   HGA3       0.090000        1.0080           0
    7700 QQQ  482  NMP  H3   HGA3       0.090000        1.0080           0
    7701 QQQ  482  NMP  N2   NG2R53    -0.098000       14.0070           0
    7702 QQQ  482  NMP  C3   CG3C52    -0.077000       12.0110           0
    7703 QQQ  482  NMP  H4   HGA2       0.090000        1.0080           0
    7704 QQQ  482  NMP  H5   HGA2       0.090000        1.0080           0
    7705 QQQ  482  NMP  C4   CG3C52    -0.233000       12.0110           0
    7706 QQQ  482  NMP  H6   HGA2       0.090000        1.0080           0
    7707 QQQ  482  NMP  H7   HGA2       0.090000        1.0080           0
    7708 QQQ  482  NMP  C5   CG3C52    -0.027000       12.0110           0
    7709 QQQ  482  NMP  H8   HGA2       0.090000        1.0080           0
    7710 QQQ  482  NMP  H9   HGA2       0.090000        1.0080           0
    7711 QQQ  482  NMP  C6   CG2R53     0.286000       12.0110           0
    7712 QQQ  482  NMP  O7   OG2D1     -0.500000       15.9990           0
    7713 QQQ  483  NMP  C1   CG331     -0.161000       12.0110           0
    7714 QQQ  483  NMP  H1   HGA3       0.090000        1.0080           0
    7715 QQQ  483  NMP  H2   HGA3       0.090000        1.0080           0
    7716 QQQ  483  NMP  H3   HGA3       0.090000        1.0080           0
    7717 QQQ  483  NMP  N2   NG2R53    -0.098000       14.0070           0
    7718 QQQ  483  NMP  C3   CG3C52    -0.077000       12.0110           0
    7719 QQQ  483  NMP  H4   HGA2       0.090000        1.0080           0
    7720 QQQ  483  NMP  H5   HGA2       0.090000        1.0080           0
    7721 QQQ  483  NMP  C4   CG3C52    -0.233000       12.0110           0
    7722 QQQ  483  NMP  H6   HGA2       0.090000        1.0080           0
    7723 QQQ  483  NMP  H7   HGA2       0.090000        1.0080           0
    7724 QQQ  483  NMP  C5   CG3C52    -0.027000       12.0110           0
    7725 QQQ  483  NMP  H8   HGA2       0.090000        1.0080           0
    7726 QQQ  483  NMP  H9   HGA2       0.090000        1.0080           0
    7727 QQQ  483  NMP  C6   CG2R53     0.286000       12.0110           0
    7728 QQQ  483  NMP  O7   OG2D1     -0.500000       15.9990           0
    7729 QQQ  484  NMP  C1   CG331     -0.161000       12.0110           0
    7730 QQQ  484  NMP  H1   HGA3       0.090000        1.0080           0
    7731 QQQ  484  NMP  H2   HGA3       0.090000        1.0080           0
    7732 QQQ  484  NMP  H3   HGA3       0.090000        1.0080           0
    7733 QQQ  484  NMP  N2   NG2R53    -0.098000       14.0070           0
    7734 QQQ  484  NMP  C3   CG3C52    -0.077000       12.0110           0
    7735 QQQ  484  NMP  H4   HGA2       0.090000        1.0080           0
    7736 QQQ  484  NMP  H5   HGA2       0.090000        1.0080           0
    7737 QQQ  484  NMP  C4   CG3C52    -0.233000       12.0110           0
    7738 QQQ  484  NMP  H6   HGA2       0.090000        1.0080           0
    7739 QQQ  484  NMP  H7   HGA2       0.090000        1.0080           0
    7740 QQQ  484  NMP  C5   CG3C52    -0.027000       12.0110           0
    7741 QQQ  484  NMP  H8   HGA2       0.090000        1.0080           0
    7742 QQQ  484  NMP  H9   HGA2       0.090000        1.0080           0
    7743 QQQ  484  NMP  C6   CG2R53     0.286000       12.0110           0
    7744 QQQ  484  NMP  O7   OG2D1     -0.500000       15.9990           0
    7745 QQQ  485  NMP  C1   CG331     -0.161000       12.0110           0
    7746 QQQ  485  NMP  H1   HGA3       0.090000        1.0080           0
    7747 QQQ  485  NMP  H2   HGA3       0.090000        1.0080           0
    7748 QQQ  485  NMP  H3   HGA3       0.090000        1.0080           0
    7749 QQQ  485  NMP  N2   NG2R53    -0.098000       14.0070           0
    7750 QQQ  485  NMP  C3   CG3C52    -0.077000       12.0110           0
    7751 QQQ  485  NMP  H4   HGA2       0.090000        1.0080           0
    7752 QQQ  485  NMP  H5   HGA2       0.090000        1.0080           0
    7753 QQQ  485  NMP  C4   CG3C52    -0.233000       12.0110           0
    7754 QQQ  485  NMP  H6   HGA2       0.090000        1.0080           0
    7755 QQQ  485  NMP  H7   HGA2       0.090000        1.0080           0
    7756 QQQ  485  NMP  C5   CG3C52    -0.027000       12.0110           0
    7757 QQQ  485  NMP  H8   HGA2       0.090000        1.0080           0
    7758 QQQ  485  NMP  H9   HGA2       0.090000        1.0080           0
    7759 QQQ  485  NMP  C6   CG2R53     0.286000       12.0110           0
    7760 QQQ  485  NMP  O7   OG2D1     -0.500000       15.9990           0
    7761 QQQ  486  NMP  C1   CG331     -0.161000       12.0110           0
    7762 QQQ  486  NMP  H1   HGA3       0.090000        1.0080           0
    7763 QQQ  486  NMP  H2   HGA3       0.090000        1.0080           0
    7764 QQQ  486  NMP  H3   HGA3       0.090000        1.0080           0
    7765 QQQ  486  NMP  N2   NG2R53    -0.098000       14.0070           0
    7766 QQQ  486  NMP  C3   CG3C52    -0.077000       12.0110           0
    7767 QQQ  486  NMP  H4   HGA2       0.090000        1.0080           0
    7768 QQQ  486  NMP  H5   HGA2       0.090000        1.0080           0
    7769 QQQ  486  NMP  C4   CG3C52    -0.233000       12.0110           0
    7770 QQQ  486  NMP  H6   HGA2       0.090000        1.0080           0
    7771 QQQ  486  NMP  H7   HGA2       0.090000        1.0080           0
    7772 QQQ  486  NMP  C5   CG3C52    -0.027000       12.0110           0
    7773 QQQ  486  NMP  H8   HGA2       0.090000        1.0080           0
    7774 QQQ  486  NMP  H9   HGA2       0.090000        1.0080           0
    7775 QQQ  486  NMP  C6   CG2R53     0.286000       12.0110           0
    7776 QQQ  486  NMP  O7   OG2D1     -0.500000       15.9990           0
    7777 QQQ  487  NMP  C1   CG331     -0.161000       12.0110           0
    7778 QQQ  487  NMP  H1   HGA3       0.090000        1.0080           0
    7779 QQQ  487  NMP  H2   HGA3       0.090000        1.0080           0
    7780 QQQ  487  NMP  H3   HGA3       0.090000        1.0080           0
    7781 QQQ  487  NMP  N2   NG2R53    -0.098000       14.0070           0
    7782 QQQ  487  NMP  C3   CG3C52    -0.077000       12.0110           0
    7783 QQQ  487  NMP  H4   HGA2       0.090000        1.0080           0
    7784 QQQ  487  NMP  H5   HGA2       0.090000        1.0080           0
    7785 QQQ  487  NMP  C4   CG3C52    -0.233000       12.0110           0
    7786 QQQ  487  NMP  H6   HGA2       0.090000        1.0080           0
    7787 QQQ  487  NMP  H7   HGA2       0.090000        1.0080           0
    7788 QQQ  487  NMP  C5   CG3C52    -0.027000       12.0110           0
    7789 QQQ  487  NMP  H8   HGA2       0.090000        1.0080           0
    7790 QQQ  487  NMP  H9   HGA2       0.090000        1.0080           0
    7791 QQQ  487  NMP  C6   CG2R53     0.286000       12.0110           0
    7792 QQQ  487  NMP  O7   OG2D1     -0.500000       15.9990           0
    7793 QQQ  488  NMP  C1   CG331     -0.161000       12.0110           0
    7794 QQQ  488  NMP  H1   HGA3       0.090000        1.0080           0
    7795 QQQ  488  NMP  H2   HGA3       0.090000        1.0080           0
    7796 QQQ  488  NMP  H3   HGA3       0.090000        1.0080           0
    7797 QQQ  488  NMP  N2   NG2R53    -0.098000       14.0070           0
    7798 QQQ  488  NMP  C3   CG3C52    -0.077000       12.0110           0
    7799 QQQ  488  NMP  H4   HGA2       0.090000        1.0080           0
    7800 QQQ  488  NMP  H5   HGA2       0.090000        1.0080           0
    7801 QQQ  488  NMP  C4   CG3C52    -0.233000       12.0110           0
    7802 QQQ  488  NMP  H6   HGA2       0.090000        1.0080           0
    7803 QQQ  488  NMP  H7   HGA2       0.090000        1.0080           0
    7804 QQQ  488  NMP  C5   CG3C52    -0.027000       12.0110           0
    7805 QQQ  488  NMP  H8   HGA2       0.090000        1.0080           0
    7806 QQQ  488  NMP  H9   HGA2       0.090000        1.0080           0
    7807 QQQ  488  NMP  C6   CG2R53     0.286000       12.0110           0
    7808 QQQ  488  NMP  O7   OG2D1     -0.500000       15.9990           0
    7809 QQQ  489  NMP  C1   CG331     -0.161000       12.0110           0
    7810 QQQ  489  NMP  H1   HGA3       0.090000        1.0080           0
    7811 QQQ  489  NMP  H2   HGA3       0.090000        1.0080           0
    7812 QQQ  489  NMP  H3   HGA3       0.090000        1.0080           0
    7813 QQQ  489  NMP  N2   NG2R53    -0.098000       14.0070           0
    7814 QQQ  489  NMP  C3   CG3C52    -0.077000       12.0110           0
    7815 QQQ  489  NMP  H4   HGA2       0.090000        1.0080           0
    7816 QQQ  489  NMP  H5   HGA2       0.090000        1.0080           0
    7817 QQQ  489  NMP  C4   CG3C52    -0.233000       12.0110           0
    7818 QQQ  489  NMP  H6   HGA2       0.090000        1.0080           0
    7819 QQQ  489  NMP  H7   HGA2       0.090000        1.0080           0
    7820 QQQ  489  NMP  C5   CG3C52    -0.027000       12.0110           0
    7821 QQQ  489  NMP  H8   HGA2       0.090000        1.0080           0
    7822 QQQ  489  NMP  H9   HGA2       0.090000        1.0080           0
    7823 QQQ  489  NMP  C6   CG2R53     0.286000       12.0110           0
    7824 QQQ  489  NMP  O7   OG2D1     -0.500000       15.9990           0
    7825 QQQ  490  NMP  C1   CG331     -0.161000       12.0110           0
    7826 QQQ  490  NMP  H1   HGA3       0.090000        1.0080           0
    7827 QQQ  490  NMP  H2   HGA3       0.090000        1.0080           0
    7828 QQQ  490  NMP  H3   HGA3       0.090000        1.0080           0
    7829 QQQ  490  NMP  N2   NG2R53    -0.098000       14.0070           0
    7830 QQQ  490  NMP  C3   CG3C52    -0.077000       12.0110           0
    7831 QQQ  490  NMP  H4   HGA2       0.090000        1.0080           0
    7832 QQQ  490  NMP  H5   HGA2       0.090000        1.0080           0
    7833 QQQ  490  NMP  C4   CG3C52    -0.233000       12.0110           0
    7834 QQQ  490  NMP  H6   HGA2       0.090000        1.0080           0
    7835 QQQ  490  NMP  H7   HGA2       0.090000        1.0080           0
    7836 QQQ  490  NMP  C5   CG3C52    -0.027000       12.0110           0
    7837 QQQ  490  NMP  H8   HGA2       0.090000        1.0080           0
    7838 QQQ  490  NMP  H9   HGA2       0.090000        1.0080           0
    7839 QQQ  490  NMP  C6   CG2R53     0.286000       12.0110           0
    7840 QQQ  490  NMP  O7   OG2D1     -0.500000       15.9990           0
    7841 QQQ  491  NMP  C1   CG331     -0.161000       12.0110           0
    7842 QQQ  491  NMP  H1   HGA3       0.090000        1.0080           0
    7843 QQQ  491  NMP  H2   HGA3       0.090000        1.0080           0
    7844 QQQ  491  NMP  H3   HGA3       0.090000        1.0080           0
    7845 QQQ  491  NMP  N2   NG2R53    -0.098000       14.0070           0
    7846 QQQ  491  NMP  C3   CG3C52    -0.077000       12.0110           0
    7847 QQQ  491  NMP  H4   HGA2       0.090000        1.0080           0
    7848 QQQ  491  NMP  H5   HGA2       0.090000        1.0080           0
    7849 QQQ  491  NMP  C4   CG3C52    -0.233000       12.0110           0
    7850 QQQ  491  NMP  H6   HGA2       0.090000        1.0080           0
    7851 QQQ  491  NMP  H7   HGA2       0.090000        1.0080           0
    7852 QQQ  491  NMP  C5   CG3C52    -0.027000       12.0110           0
    7853 QQQ  491  NMP  H8   HGA2       0.090000        1.0080           0
    7854 QQQ  491  NMP  H9   HGA2       0.090000        1.0080           0
    7855 QQQ  491  NMP  C6   CG2R53     0.286000       12.0110           0
    7856 QQQ  491  NMP  O7   OG2D1     -0.500000       15.9990           0
    7857 QQQ  492  NMP  C1   CG331     -0.161000       12.0110           0
    7858 QQQ  492  NMP  H1   HGA3       0.090000        1.0080           0
    7859 QQQ  492  NMP  H2   HGA3       0.090000        1.0080           0
    7860 QQQ  492  NMP  H3   HGA3       0.090000        1.0080           0
    7861 QQQ  492  NMP  N2   NG2R53    -0.098000       14.0070           0
    7862 QQQ  492  NMP  C3   CG3C52    -0.077000       12.0110           0
    7863 QQQ  492  NMP  H4   HGA2       0.090000        1.0080           0
    7864 QQQ  492  NMP  H5   HGA2       0.090000        1.0080           0
    7865 QQQ  492  NMP  C4   CG3C52    -0.233000       12.0110           0
    7866 QQQ  492  NMP  H6   HGA2       0.090000        1.0080           0
    7867 QQQ  492  NMP  H7   HGA2       0.090000        1.0080           0
    7868 QQQ  492  NMP  C5   CG3C52    -0.027000       12.0110           0
    7869 QQQ  492  NMP  H8   HGA2       0.090000        1.0080           0
    7870 QQQ  492  NMP  H9   HGA2       0.090000        1.0080           0
    7871 QQQ  492  NMP  C6   CG2R53     0.286000       12.0110           0
    7872 QQQ  492  NMP  O7   OG2D1     -0.500000       15.9990           0
    7873 QQQ  493  NMP  C1   CG331     -0.161000       12.0110           0
    7874 QQQ  493  NMP  H1   HGA3       0.090000        1.0080           0
    7875 QQQ  493  NMP  H2   HGA3       0.090000        1.0080           0
    7876 QQQ  493  NMP  H3   HGA3       0.090000        1.0080           0
    7877 QQQ  493  NMP  N2   NG2R53    -0.098000       14.0070           0
    7878 QQQ  493  NMP  C3   CG3C52    -0.077000       12.0110           0
    7879 QQQ  493  NMP  H4   HGA2       0.090000        1.0080           0
    7880 QQQ  493  NMP  H5   HGA2       0.090000        1.0080           0
    7881 QQQ  493  NMP  C4   CG3C52    -0.233000       12.0110           0
    7882 QQQ  493  NMP  H6   HGA2       0.090000        1.0080           0
    7883 QQQ  493  NMP  H7   HGA2       0.090000        1.0080           0
    7884 QQQ  493  NMP  C5   CG3C52    -0.027000       12.0110           0
    7885 QQQ  493  NMP  H8   HGA2       0.090000        1.0080           0
    7886 QQQ  493  NMP  H9   HGA2       0.090000        1.0080           0
    7887 QQQ  493  NMP  C6   CG2R53     0.286000       12.0110           0
    7888 QQQ  493  NMP  O7   OG2D1     -0.500000       15.9990           0
    7889 QQQ  494  NMP  C1   CG331     -0.161000       12.0110           0
    7890 QQQ  494  NMP  H1   HGA3       0.090000        1.0080           0
    7891 QQQ  494  NMP  H2   HGA3       0.090000        1.0080           0
    7892 QQQ  494  NMP  H3   HGA3       0.090000        1.0080           0
    7893 QQQ  494  NMP  N2   NG2R53    -0.098000       14.0070           0
    7894 QQQ  494  NMP  C3   CG3C52    -0.077000       12.0110           0
    7895 QQQ  494  NMP  H4   HGA2       0.090000        1.0080           0
    7896 QQQ  494  NMP  H5   HGA2       0.090000        1.0080           0
    7897 QQQ  494  NMP  C4   CG3C52    -0.233000       12.0110           0
    7898 QQQ  494  NMP  H6   HGA2       0.090000        1.0080           0
    7899 QQQ  494  NMP  H7   HGA2       0.090000        1.0080           0
    7900 QQQ  494  NMP  C5   CG3C52    -0.027000       12.0110           0
    7901 QQQ  494  NMP  H8   HGA2       0.090000        1.0080           0
    7902 QQQ  494  NMP  H9   HGA2       0.090000        1.0080           0
    7903 QQQ  494  NMP  C6   CG2R53     0.286000       12.0110           0
    7904 QQQ  494  NMP  O7   OG2D1     -0.500000       15.9990           0
    7905 QQQ  495  NMP  C1   CG331     -0.161000       12.0110           0
    7906 QQQ  495  NMP  H1   HGA3       0.090000        1.0080           0
    7907 QQQ  495  NMP  H2   HGA3       0.090000        1.0080           0
    7908 QQQ  495  NMP  H3   HGA3       0.090000        1.0080           0
    7909 QQQ  495  NMP  N2   NG2R53    -0.098000       14.0070           0
    7910 QQQ  495  NMP  C3   CG3C52    -0.077000       12.0110           0
    7911 QQQ  495  NMP  H4   HGA2       0.090000        1.0080           0
    7912 QQQ  495  NMP  H5   HGA2       0.090000        1.0080           0
    7913 QQQ  495  NMP  C4   CG3C52    -0.233000       12.0110           0
    7914 QQQ  495  NMP  H6   HGA2       0.090000        1.0080           0
    7915 QQQ  495  NMP  H7   HGA2       0.090000        1.0080           0
    7916 QQQ  495  NMP  C5   CG3C52    -0.027000       12.0110           0
    7917 QQQ  495  NMP  H8   HGA2       0.090000        1.0080           0
    7918 QQQ  495  NMP  H9   HGA2       0.090000        1.0080           0
    7919 QQQ  495  NMP  C6   CG2R53     0.286000       12.0110           0
    7920 QQQ  495  NMP  O7   OG2D1     -0.500000       15.9990           0
    7921 QQQ  496  NMP  C1   CG331     -0.161000       12.0110           0
    7922 QQQ  496  NMP  H1   HGA3       0.090000        1.0080           0
    7923 QQQ  496  NMP  H2   HGA3       0.090000        1.0080           0
    7924 QQQ  496  NMP  H3   HGA3       0.090000        1.0080           0
    7925 QQQ  496  NMP  N2   NG2R53    -0.098000       14.0070           0
    7926 QQQ  496  NMP  C3   CG3C52    -0.077000       12.0110           0
    7927 QQQ  496  NMP  H4   HGA2       0.090000        1.0080           0
    7928 QQQ  496  NMP  H5   HGA2       0.090000        1.0080           0
    7929 QQQ  496  NMP  C4   CG3C52    -0.233000       12.0110           0
    7930 QQQ  496  NMP  H6   HGA2       0.090000        1.0080           0
    7931 QQQ  496  NMP  H7   HGA2       0.090000        1.0080           0
    7932 QQQ  496  NMP  C5   CG3C52    -0.027000       12.0110           0
    7933 QQQ  496  NMP  H8   HGA2       0.090000        1.0080           0
    7934 QQQ  496  NMP  H9   HGA2       0.090000        1.0080           0
    7935 QQQ  496  NMP  C6   CG2R53     0.286000       12.0110           0
    7936 QQQ  496  NMP  O7   OG2D1     -0.500000       15.9990           0
    7937 QQQ  497  NMP  C1   CG331     -0.161000       12.0110           0
    7938 QQQ  497  NMP  H1   HGA3       0.090000        1.0080           0
    7939 QQQ  497  NMP  H2   HGA3       0.090000        1.0080           0
    7940 QQQ  497  NMP  H3   HGA3       0.090000        1.0080           0
    7941 QQQ  497  NMP  N2   NG2R53    -0.098000       14.0070           0
    7942 QQQ  497  NMP  C3   CG3C52    -0.077000       12.0110           0
    7943 QQQ  497  NMP  H4   HGA2       0.090000        1.0080           0
    7944 QQQ  497  NMP  H5   HGA2       0.090000        1.0080           0
    7945 QQQ  497  NMP  C4   CG3C52    -0.233000       12.0110           0
    7946 QQQ  497  NMP  H6   HGA2       0.090000        1.0080           0
    7947 QQQ  497  NMP  H7   HGA2       0.090000        1.0080           0
    7948 QQQ  497  NMP  C5   CG3C52    -0.027000       12.0110           0
    7949 QQQ  497  NMP  H8   HGA2       0.090000        1.0080           0
    7950 QQQ  497  NMP  H9   HGA2       0.090000        1.0080           0
    7951 QQQ  497  NMP  C6   CG2R53     0.286000       12.0110           0
    7952 QQQ  497  NMP  O7   OG2D1     -0.500000       15.9990           0
    7953 QQQ  498  NMP  C1   CG331     -0.161000       12.0110           0
    7954 QQQ  498  NMP  H1   HGA3       0.090000        1.0080           0
    7955 QQQ  498  NMP  H2   HGA3       0.090000        1.0080           0
    7956 QQQ  498  NMP  H3   HGA3       0.090000        1.0080           0
    7957 QQQ  498  NMP  N2   NG2R53    -0.098000       14.0070           0
    7958 QQQ  498  NMP  C3   CG3C52    -0.077000       12.0110           0
    7959 QQQ  498  NMP  H4   HGA2       0.090000        1.0080           0
    7960 QQQ  498  NMP  H5   HGA2       0.090000        1.0080           0
    7961 QQQ  498  NMP  C4   CG3C52    -0.233000       12.0110           0
    7962 QQQ  498  NMP  H6   HGA2       0.090000        1.0080           0
    7963 QQQ  498  NMP  H7   HGA2       0.090000        1.0080           0
    7964 QQQ  498  NMP  C5   CG3C52    -0.027000       12.0110           0
    7965 QQQ  498  NMP  H8   HGA2       0.090000        1.0080           0
    7966 QQQ  498  NMP  H9   HGA2       0.090000        1.0080           0
    7967 QQQ  498  NMP  C6   CG2R53     0.286000       12.0110           0
    7968 QQQ  498  NMP  O7   OG2D1     -0.500000       15.9990           0
    7969 QQQ  499  NMP  C1   CG331     -0.161000       12.0110           0
    7970 QQQ  499  NMP  H1   HGA3       0.090000        1.0080           0
    7971 QQQ  499  NMP  H2   HGA3       0.090000        1.0080           0
    7972 QQQ  499  NMP  H3   HGA3       0.090000        1.0080           0
    7973 QQQ  499  NMP  N2   NG2R53    -0.098000       14.0070           0
    7974 QQQ  499  NMP  C3   CG3C52    -0.077000       12.0110           0
    7975 QQQ  499  NMP  H4   HGA2       0.090000        1.0080           0
    7976 QQQ  499  NMP  H5   HGA2       0.090000        1.0080           0
    7977 QQQ  499  NMP  C4   CG3C52    -0.233000       12.0110           0
    7978 QQQ  499  NMP  H6   HGA2       0.090000        1.0080           0
    7979 QQQ  499  NMP  H7   HGA2       0.090000        1.0080           0
    7980 QQQ  499  NMP  C5   CG3C52    -0.027000       12.0110           0
    7981 QQQ  499  NMP  H8   HGA2       0.090000        1.0080           0
    7982 QQQ  499  NMP  H9   HGA2       0.090000        1.0080           0
    7983 QQQ  499  NMP  C6   CG2R53     0.286000       12.0110           0
    7984 QQQ  499  NMP  O7   OG2D1     -0.500000       15.9990           0
    7985 QQQ  500  NMP  C1   CG331     -0.161000       12.0110           0
    7986 QQQ  500  NMP  H1   HGA3       0.090000        1.0080           0
    7987 QQQ  500  NMP  H2   HGA3       0.090000        1.0080           0
    7988 QQQ  500  NMP  H3   HGA3       0.090000        1.0080           0
    7989 QQQ  500  NMP  N2   NG2R53    -0.098000       14.0070           0
    7990 QQQ  500  NMP  C3   CG3C52    -0.077000       12.0110           0
    7991 QQQ  500  NMP  H4   HGA2       0.090000        1.0080           0
    7992 QQQ  500  NMP  H5   HGA2       0.090000        1.0080           0
    7993 QQQ  500  NMP  C4   CG3C52    -0.233000       12.0110           0
    7994 QQQ  500  NMP  H6   HGA2       0.090000        1.0080           0
    7995 QQQ  500  NMP  H7   HGA2       0.090000        1.0080           0
    7996 QQQ  500  NMP  C5   CG3C52    -0.027000       12.0110           0
    7997 QQQ  500  NMP  H8   HGA2       0.090000        1.0080           0
    7998 QQQ  500  NMP  H9   HGA2       0.090000        1.0080           0
    7999 QQQ  500  NMP  C6   CG2R53     0.286000       12.0110           0
    8000 QQQ  500  NMP  O7   OG2D1     -0.500000       15.9990           0
    8001 QQQ  501  NMP  C1   CG331     -0.161000       12.0110           0
    8002 QQQ  501  NMP  H1   HGA3       0.090000        1.0080           0
    8003 QQQ  501  NMP  H2   HGA3       0.090000        1.0080           0
    8004 QQQ  501  NMP  H3   HGA3       0.090000        1.0080           0
    8005 QQQ  501  NMP  N2   NG2R53    -0.098000       14.0070           0
    8006 QQQ  501  NMP  C3   CG3C52    -0.077000       12.0110           0
    8007 QQQ  501  NMP  H4   HGA2       0.090000        1.0080           0
    8008 QQQ  501  NMP  H5   HGA2       0.090000        1.0080           0
    8009 QQQ  501  NMP  C4   CG3C52    -0.233000       12.0110           0
    8010 QQQ  501  NMP  H6   HGA2       0.090000        1.0080           0
    8011 QQQ  501  NMP  H7   HGA2       0.090000        1.0080           0
    8012 QQQ  501  NMP  C5   CG3C52    -0.027000       12.0110           0
    8013 QQQ  501  NMP  H8   HGA2       0.090000        1.0080           0
    8014 QQQ  501  NMP  H9   HGA2       0.090000        1.0080           0
    8015 QQQ  501  NMP  C6   CG2R53     0.286000       12.0110           0
    8016 QQQ  501  NMP  O7   OG2D1     -0.500000       15.9990           0
    8017 QQQ  502  NMP  C1   CG331     -0.161000       12.0110           0
    8018 QQQ  502  NMP  H1   HGA3       0.090000        1.0080           0
    8019 QQQ  502  NMP  H2   HGA3       0.090000        1.0080           0
    8020 QQQ  502  NMP  H3   HGA3       0.090000        1.0080           0
    8021 QQQ  502  NMP  N2   NG2R53    -0.098000       14.0070           0
    8022 QQQ  502  NMP  C3   CG3C52    -0.077000       12.0110           0
    8023 QQQ  502  NMP  H4   HGA2       0.090000        1.0080           0
    8024 QQQ  502  NMP  H5   HGA2       0.090000        1.0080           0
    8025 QQQ  502  NMP  C4   CG3C52    -0.233000       12.0110           0
    8026 QQQ  502  NMP  H6   HGA2       0.090000        1.0080           0
    8027 QQQ  502  NMP  H7   HGA2       0.090000        1.0080           0
    8028 QQQ  502  NMP  C5   CG3C52    -0.027000       12.0110           0
    8029 QQQ  502  NMP  H8   HGA2       0.090000        1.0080           0
    8030 QQQ  502  NMP  H9   HGA2       0.090000        1.0080           0
    8031 QQQ  502  NMP  C6   CG2R53     0.286000       12.0110           0
    8032 QQQ  502  NMP  O7   OG2D1     -0.500000       15.9990           0
    8033 QQQ  503  NMP  C1   CG331     -0.161000       12.0110           0
    8034 QQQ  503  NMP  H1   HGA3       0.090000        1.0080           0
    8035 QQQ  503  NMP  H2   HGA3       0.090000        1.0080           0
    8036 QQQ  503  NMP  H3   HGA3       0.090000        1.0080           0
    8037 QQQ  503  NMP  N2   NG2R53    -0.098000       14.0070           0
    8038 QQQ  503  NMP  C3   CG3C52    -0.077000       12.0110           0
    8039 QQQ  503  NMP  H4   HGA2       0.090000        1.0080           0
    8040 QQQ  503  NMP  H5   HGA2       0.090000        1.0080           0
    8041 QQQ  503  NMP  C4   CG3C52    -0.233000       12.0110           0
    8042 QQQ  503  NMP  H6   HGA2       0.090000        1.0080           0
    8043 QQQ  503  NMP  H7   HGA2       0.090000        1.0080           0
    8044 QQQ  503  NMP  C5   CG3C52    -0.027000       12.0110           0
    8045 QQQ  503  NMP  H8   HGA2       0.090000        1.0080           0
    8046 QQQ  503  NMP  H9   HGA2       0.090000        1.0080           0
    8047 QQQ  503  NMP  C6   CG2R53     0.286000       12.0110           0
    8048 QQQ  503  NMP  O7   OG2D1     -0.500000       15.9990           0
    8049 QQQ  504  NMP  C1   CG331     -0.161000       12.0110           0
    8050 QQQ  504  NMP  H1   HGA3       0.090000        1.0080           0
    8051 QQQ  504  NMP  H2   HGA3       0.090000        1.0080           0
    8052 QQQ  504  NMP  H3   HGA3       0.090000        1.0080           0
    8053 QQQ  504  NMP  N2   NG2R53    -0.098000       14.0070           0
    8054 QQQ  504  NMP  C3   CG3C52    -0.077000       12.0110           0
    8055 QQQ  504  NMP  H4   HGA2       0.090000        1.0080           0
    8056 QQQ  504  NMP  H5   HGA2       0.090000        1.0080           0
    8057 QQQ  504  NMP  C4   CG3C52    -0.233000       12.0110           0
    8058 QQQ  504  NMP  H6   HGA2       0.090000        1.0080           0
    8059 QQQ  504  NMP  H7   HGA2       0.090000        1.0080           0
    8060 QQQ  504  NMP  C5   CG3C52    -0.027000       12.0110           0
    8061 QQQ  504  NMP  H8   HGA2       0.090000        1.0080           0
    8062 QQQ  504  NMP  H9   HGA2       0.090000        1.0080           0
    8063 QQQ  504  NMP  C6   CG2R53     0.286000       12.0110           0
    8064 QQQ  504  NMP  O7   OG2D1     -0.500000       15.9990           0
    8065 QQQ  505  NMP  C1   CG331     -0.161000       12.0110           0
    8066 QQQ  505  NMP  H1   HGA3       0.090000        1.0080           0
    8067 QQQ  505  NMP  H2   HGA3       0.090000        1.0080           0
    8068 QQQ  505  NMP  H3   HGA3       0.090000        1.0080           0
    8069 QQQ  505  NMP  N2   NG2R53    -0.098000       14.0070           0
    8070 QQQ  505  NMP  C3   CG3C52    -0.077000       12.0110           0
    8071 QQQ  505  NMP  H4   HGA2       0.090000        1.0080           0
    8072 QQQ  505  NMP  H5   HGA2       0.090000        1.0080           0
    8073 QQQ  505  NMP  C4   CG3C52    -0.233000       12.0110           0
    8074 QQQ  505  NMP  H6   HGA2       0.090000        1.0080           0
    8075 QQQ  505  NMP  H7   HGA2       0.090000        1.0080           0
    8076 QQQ  505  NMP  C5   CG3C52    -0.027000       12.0110           0
    8077 QQQ  505  NMP  H8   HGA2       0.090000        1.0080           0
    8078 QQQ  505  NMP  H9   HGA2       0.090000        1.0080           0
    8079 QQQ  505  NMP  C6   CG2R53     0.286000       12.0110           0
    8080 QQQ  505  NMP  O7   OG2D1     -0.500000       15.9990           0
    8081 QQQ  506  NMP  C1   CG331     -0.161000       12.0110           0
    8082 QQQ  506  NMP  H1   HGA3       0.090000        1.0080           0
    8083 QQQ  506  NMP  H2   HGA3       0.090000        1.0080           0
    8084 QQQ  506  NMP  H3   HGA3       0.090000        1.0080           0
    8085 QQQ  506  NMP  N2   NG2R53    -0.098000       14.0070           0
    8086 QQQ  506  NMP  C3   CG3C52    -0.077000       12.0110           0
    8087 QQQ  506  NMP  H4   HGA2       0.090000        1.0080           0
    8088 QQQ  506  NMP  H5   HGA2       0.090000        1.0080           0
    8089 QQQ  506  NMP  C4   CG3C52    -0.233000       12.0110           0
    8090 QQQ  506  NMP  H6   HGA2       0.090000        1.0080           0
    8091 QQQ  506  NMP  H7   HGA2       0.090000        1.0080           0
    8092 QQQ  506  NMP  C5   CG3C52    -0.027000       12.0110           0
    8093 QQQ  506  NMP  H8   HGA2       0.090000        1.0080           0
    8094 QQQ  506  NMP  H9   HGA2       0.090000        1.0080           0
    8095 QQQ  506  NMP  C6   CG2R53     0.286000       12.0110           0
    8096 QQQ  506  NMP  O7   OG2D1     -0.500000       15.9990           0
    8097 QQQ  507  NMP  C1   CG331     -0.161000       12.0110           0
    8098 QQQ  507  NMP  H1   HGA3       0.090000        1.0080           0
    8099 QQQ  507  NMP  H2   HGA3       0.090000        1.0080           0
    8100 QQQ  507  NMP  H3   HGA3       0.090000        1.0080           0
    8101 QQQ  507  NMP  N2   NG2R53    -0.098000       14.0070           0
    8102 QQQ  507  NMP  C3   CG3C52    -0.077000       12.0110           0
    8103 QQQ  507  NMP  H4   HGA2       0.090000        1.0080           0
    8104 QQQ  507  NMP  H5   HGA2       0.090000        1.0080           0
    8105 QQQ  507  NMP  C4   CG3C52    -0.233000       12.0110           0
    8106 QQQ  507  NMP  H6   HGA2       0.090000        1.0080           0
    8107 QQQ  507  NMP  H7   HGA2       0.090000        1.0080           0
    8108 QQQ  507  NMP  C5   CG3C52    -0.027000       12.0110           0
    8109 QQQ  507  NMP  H8   HGA2       0.090000        1.0080           0
    8110 QQQ  507  NMP  H9   HGA2       0.090000        1.0080           0
    8111 QQQ  507  NMP  C6   CG2R53     0.286000       12.0110           0
    8112 QQQ  507  NMP  O7   OG2D1     -0.500000       15.9990           0
    8113 QQQ  508  NMP  C1   CG331     -0.161000       12.0110           0
    8114 QQQ  508  NMP  H1   HGA3       0.090000        1.0080           0
    8115 QQQ  508  NMP  H2   HGA3       0.090000        1.0080           0
    8116 QQQ  508  NMP  H3   HGA3       0.090000        1.0080           0
    8117 QQQ  508  NMP  N2   NG2R53    -0.098000       14.0070           0
    8118 QQQ  508  NMP  C3   CG3C52    -0.077000       12.0110           0
    8119 QQQ  508  NMP  H4   HGA2       0.090000        1.0080           0
    8120 QQQ  508  NMP  H5   HGA2       0.090000        1.0080           0
    8121 QQQ  508  NMP  C4   CG3C52    -0.233000       12.0110           0
    8122 QQQ  508  NMP  H6   HGA2       0.090000        1.0080           0
    8123 QQQ  508  NMP  H7   HGA2       0.090000        1.0080           0
    8124 QQQ  508  NMP  C5   CG3C52    -0.027000       12.0110           0
    8125 QQQ  508  NMP  H8   HGA2       0.090000        1.0080           0
    8126 QQQ  508  NMP  H9   HGA2       0.090000        1.0080           0
    8127 QQQ  508  NMP  C6   CG2R53     0.286000       12.0110           0
    8128 QQQ  508  NMP  O7   OG2D1     -0.500000       15.9990           0
    8129 QQQ  509  NMP  C1   CG331     -0.161000       12.0110           0
    8130 QQQ  509  NMP  H1   HGA3       0.090000        1.0080           0
    8131 QQQ  509  NMP  H2   HGA3       0.090000        1.0080           0
    8132 QQQ  509  NMP  H3   HGA3       0.090000        1.0080           0
    8133 QQQ  509  NMP  N2   NG2R53    -0.098000       14.0070           0
    8134 QQQ  509  NMP  C3   CG3C52    -0.077000       12.0110           0
    8135 QQQ  509  NMP  H4   HGA2       0.090000        1.0080           0
    8136 QQQ  509  NMP  H5   HGA2       0.090000        1.0080           0
    8137 QQQ  509  NMP  C4   CG3C52    -0.233000       12.0110           0
    8138 QQQ  509  NMP  H6   HGA2       0.090000        1.0080           0
    8139 QQQ  509  NMP  H7   HGA2       0.090000        1.0080           0
    8140 QQQ  509  NMP  C5   CG3C52    -0.027000       12.0110           0
    8141 QQQ  509  NMP  H8   HGA2       0.090000        1.0080           0
    8142 QQQ  509  NMP  H9   HGA2       0.090000        1.0080           0
    8143 QQQ  509  NMP  C6   CG2R53     0.286000       12.0110           0
    8144 QQQ  509  NMP  O7   OG2D1     -0.500000       15.9990           0
    8145 QQQ  510  NMP  C1   CG331     -0.161000       12.0110           0
    8146 QQQ  510  NMP  H1   HGA3       0.090000        1.0080           0
    8147 QQQ  510  NMP  H2   HGA3       0.090000        1.0080           0
    8148 QQQ  510  NMP  H3   HGA3       0.090000        1.0080           0
    8149 QQQ  510  NMP  N2   NG2R53    -0.098000       14.0070           0
    8150 QQQ  510  NMP  C3   CG3C52    -0.077000       12.0110           0
    8151 QQQ  510  NMP  H4   HGA2       0.090000        1.0080           0
    8152 QQQ  510  NMP  H5   HGA2       0.090000        1.0080           0
    8153 QQQ  510  NMP  C4   CG3C52    -0.233000       12.0110           0
    8154 QQQ  510  NMP  H6   HGA2       0.090000        1.0080           0
    8155 QQQ  510  NMP  H7   HGA2       0.090000        1.0080           0
    8156 QQQ  510  NMP  C5   CG3C52    -0.027000       12.0110           0
    8157 QQQ  510  NMP  H8   HGA2       0.090000        1.0080           0
    8158 QQQ  510  NMP  H9   HGA2       0.090000        1.0080           0
    8159 QQQ  510  NMP  C6   CG2R53     0.286000       12.0110           0
    8160 QQQ  510  NMP  O7   OG2D1     -0.500000       15.9990           0
    8161 QQQ  511  NMP  C1   CG331     -0.161000       12.0110           0
    8162 QQQ  511  NMP  H1   HGA3       0.090000        1.0080           0
    8163 QQQ  511  NMP  H2   HGA3       0.090000        1.0080           0
    8164 QQQ  511  NMP  H3   HGA3       0.090000        1.0080           0
    8165 QQQ  511  NMP  N2   NG2R53    -0.098000       14.0070           0
    8166 QQQ  511  NMP  C3   CG3C52    -0.077000       12.0110           0
    8167 QQQ  511  NMP  H4   HGA2       0.090000        1.0080           0
    8168 QQQ  511  NMP  H5   HGA2       0.090000        1.0080           0
    8169 QQQ  511  NMP  C4   CG3C52    -0.233000       12.0110           0
    8170 QQQ  511  NMP  H6   HGA2       0.090000        1.0080           0
    8171 QQQ  511  NMP  H7   HGA2       0.090000        1.0080           0
    8172 QQQ  511  NMP  C5   CG3C52    -0.027000       12.0110           0
    8173 QQQ  511  NMP  H8   HGA2       0.090000        1.0080           0
    8174 QQQ  511  NMP  H9   HGA2       0.090000        1.0080           0
    8175 QQQ  511  NMP  C6   CG2R53     0.286000       12.0110           0
    8176 QQQ  511  NMP  O7   OG2D1     -0.500000       15.9990           0
    8177 QQQ  512  NMP  C1   CG331     -0.161000       12.0110           0
    8178 QQQ  512  NMP  H1   HGA3       0.090000        1.0080           0
    8179 QQQ  512  NMP  H2   HGA3       0.090000        1.0080           0
    8180 QQQ  512  NMP  H3   HGA3       0.090000        1.0080           0
    8181 QQQ  512  NMP  N2   NG2R53    -0.098000       14.0070           0
    8182 QQQ  512  NMP  C3   CG3C52    -0.077000       12.0110           0
    8183 QQQ  512  NMP  H4   HGA2       0.090000        1.0080           0
    8184 QQQ  512  NMP  H5   HGA2       0.090000        1.0080           0
    8185 QQQ  512  NMP  C4   CG3C52    -0.233000       12.0110           0
    8186 QQQ  512  NMP  H6   HGA2       0.090000        1.0080           0
    8187 QQQ  512  NMP  H7   HGA2       0.090000        1.0080           0
    8188 QQQ  512  NMP  C5   CG3C52    -0.027000       12.0110           0
    8189 QQQ  512  NMP  H8   HGA2       0.090000        1.0080           0
    8190 QQQ  512  NMP  H9   HGA2       0.090000        1.0080           0
    8191 QQQ  512  NMP  C6   CG2R53     0.286000       12.0110           0
    8192 QQQ  512  NMP  O7   OG2D1     -0.500000       15.9990           0
    8193 QQQ  513  NMP  C1   CG331     -0.161000       12.0110           0
    8194 QQQ  513  NMP  H1   HGA3       0.090000        1.0080           0
    8195 QQQ  513  NMP  H2   HGA3       0.090000        1.0080           0
    8196 QQQ  513  NMP  H3   HGA3       0.090000        1.0080           0
    8197 QQQ  513  NMP  N2   NG2R53    -0.098000       14.0070           0
    8198 QQQ  513  NMP  C3   CG3C52    -0.077000       12.0110           0
    8199 QQQ  513  NMP  H4   HGA2       0.090000        1.0080           0
    8200 QQQ  513  NMP  H5   HGA2       0.090000        1.0080           0
    8201 QQQ  513  NMP  C4   CG3C52    -0.233000       12.0110           0
    8202 QQQ  513  NMP  H6   HGA2       0.090000        1.0080           0
    8203 QQQ  513  NMP  H7   HGA2       0.090000        1.0080           0
    8204 QQQ  513  NMP  C5   CG3C52    -0.027000       12.0110           0
    8205 QQQ  513  NMP  H8   HGA2       0.090000        1.0080           0
    8206 QQQ  513  NMP  H9   HGA2       0.090000        1.0080           0
    8207 QQQ  513  NMP  C6   CG2R53     0.286000       12.0110           0
    8208 QQQ  513  NMP  O7   OG2D1     -0.500000       15.9990           0
    8209 QQQ  514  NMP  C1   CG331     -0.161000       12.0110           0
    8210 QQQ  514  NMP  H1   HGA3       0.090000        1.0080           0
    8211 QQQ  514  NMP  H2   HGA3       0.090000        1.0080           0
    8212 QQQ  514  NMP  H3   HGA3       0.090000        1.0080           0
    8213 QQQ  514  NMP  N2   NG2R53    -0.098000       14.0070           0
    8214 QQQ  514  NMP  C3   CG3C52    -0.077000       12.0110           0
    8215 QQQ  514  NMP  H4   HGA2       0.090000        1.0080           0
    8216 QQQ  514  NMP  H5   HGA2       0.090000        1.0080           0
    8217 QQQ  514  NMP  C4   CG3C52    -0.233000       12.0110           0
    8218 QQQ  514  NMP  H6   HGA2       0.090000        1.0080           0
    8219 QQQ  514  NMP  H7   HGA2       0.090000        1.0080           0
    8220 QQQ  514  NMP  C5   CG3C52    -0.027000       12.0110           0
    8221 QQQ  514  NMP  H8   HGA2       0.090000        1.0080           0
    8222 QQQ  514  NMP  H9   HGA2       0.090000        1.0080           0
    8223 QQQ  514  NMP  C6   CG2R53     0.286000       12.0110           0
    8224 QQQ  514  NMP  O7   OG2D1     -0.500000       15.9990           0
    8225 QQQ  515  NMP  C1   CG331     -0.161000       12.0110           0
    8226 QQQ  515  NMP  H1   HGA3       0.090000        1.0080           0
    8227 QQQ  515  NMP  H2   HGA3       0.090000        1.0080           0
    8228 QQQ  515  NMP  H3   HGA3       0.090000        1.0080           0
    8229 QQQ  515  NMP  N2   NG2R53    -0.098000       14.0070           0
    8230 QQQ  515  NMP  C3   CG3C52    -0.077000       12.0110           0
    8231 QQQ  515  NMP  H4   HGA2       0.090000        1.0080           0
    8232 QQQ  515  NMP  H5   HGA2       0.090000        1.0080           0
    8233 QQQ  515  NMP  C4   CG3C52    -0.233000       12.0110           0
    8234 QQQ  515  NMP  H6   HGA2       0.090000        1.0080           0
    8235 QQQ  515  NMP  H7   HGA2       0.090000        1.0080           0
    8236 QQQ  515  NMP  C5   CG3C52    -0.027000       12.0110           0
    8237 QQQ  515  NMP  H8   HGA2       0.090000        1.0080           0
    8238 QQQ  515  NMP  H9   HGA2       0.090000        1.0080           0
    8239 QQQ  515  NMP  C6   CG2R53     0.286000       12.0110           0
    8240 QQQ  515  NMP  O7   OG2D1     -0.500000       15.9990           0
    8241 QQQ  516  NMP  C1   CG331     -0.161000       12.0110           0
    8242 QQQ  516  NMP  H1   HGA3       0.090000        1.0080           0
    8243 QQQ  516  NMP  H2   HGA3       0.090000        1.0080           0
    8244 QQQ  516  NMP  H3   HGA3       0.090000        1.0080           0
    8245 QQQ  516  NMP  N2   NG2R53    -0.098000       14.0070           0
    8246 QQQ  516  NMP  C3   CG3C52    -0.077000       12.0110           0
    8247 QQQ  516  NMP  H4   HGA2       0.090000        1.0080           0
    8248 QQQ  516  NMP  H5   HGA2       0.090000        1.0080           0
    8249 QQQ  516  NMP  C4   CG3C52    -0.233000       12.0110           0
    8250 QQQ  516  NMP  H6   HGA2       0.090000        1.0080           0
    8251 QQQ  516  NMP  H7   HGA2       0.090000        1.0080           0
    8252 QQQ  516  NMP  C5   CG3C52    -0.027000       12.0110           0
    8253 QQQ  516  NMP  H8   HGA2       0.090000        1.0080           0
    8254 QQQ  516  NMP  H9   HGA2       0.090000        1.0080           0
    8255 QQQ  516  NMP  C6   CG2R53     0.286000       12.0110           0
    8256 QQQ  516  NMP  O7   OG2D1     -0.500000       15.9990           0
    8257 QQQ  517  NMP  C1   CG331     -0.161000       12.0110           0
    8258 QQQ  517  NMP  H1   HGA3       0.090000        1.0080           0
    8259 QQQ  517  NMP  H2   HGA3       0.090000        1.0080           0
    8260 QQQ  517  NMP  H3   HGA3       0.090000        1.0080           0
    8261 QQQ  517  NMP  N2   NG2R53    -0.098000       14.0070           0
    8262 QQQ  517  NMP  C3   CG3C52    -0.077000       12.0110           0
    8263 QQQ  517  NMP  H4   HGA2       0.090000        1.0080           0
    8264 QQQ  517  NMP  H5   HGA2       0.090000        1.0080           0
    8265 QQQ  517  NMP  C4   CG3C52    -0.233000       12.0110           0
    8266 QQQ  517  NMP  H6   HGA2       0.090000        1.0080           0
    8267 QQQ  517  NMP  H7   HGA2       0.090000        1.0080           0
    8268 QQQ  517  NMP  C5   CG3C52    -0.027000       12.0110           0
    8269 QQQ  517  NMP  H8   HGA2       0.090000        1.0080           0
    8270 QQQ  517  NMP  H9   HGA2       0.090000        1.0080           0
    8271 QQQ  517  NMP  C6   CG2R53     0.286000       12.0110           0
    8272 QQQ  517  NMP  O7   OG2D1     -0.500000       15.9990           0
    8273 QQQ  518  NMP  C1   CG331     -0.161000       12.0110           0
    8274 QQQ  518  NMP  H1   HGA3       0.090000        1.0080           0
    8275 QQQ  518  NMP  H2   HGA3       0.090000        1.0080           0
    8276 QQQ  518  NMP  H3   HGA3       0.090000        1.0080           0
    8277 QQQ  518  NMP  N2   NG2R53    -0.098000       14.0070           0
    8278 QQQ  518  NMP  C3   CG3C52    -0.077000       12.0110           0
    8279 QQQ  518  NMP  H4   HGA2       0.090000        1.0080           0
    8280 QQQ  518  NMP  H5   HGA2       0.090000        1.0080           0
    8281 QQQ  518  NMP  C4   CG3C52    -0.233000       12.0110           0
    8282 QQQ  518  NMP  H6   HGA2       0.090000        1.0080           0
    8283 QQQ  518  NMP  H7   HGA2       0.090000        1.0080           0
    8284 QQQ  518  NMP  C5   CG3C52    -0.027000       12.0110           0
    8285 QQQ  518  NMP  H8   HGA2       0.090000        1.0080           0
    8286 QQQ  518  NMP  H9   HGA2       0.090000        1.0080           0
    8287 QQQ  518  NMP  C6   CG2R53     0.286000       12.0110           0
    8288 QQQ  518  NMP  O7   OG2D1     -0.500000       15.9990           0
    8289 QQQ  519  NMP  C1   CG331     -0.161000       12.0110           0
    8290 QQQ  519  NMP  H1   HGA3       0.090000        1.0080           0
    8291 QQQ  519  NMP  H2   HGA3       0.090000        1.0080           0
    8292 QQQ  519  NMP  H3   HGA3       0.090000        1.0080           0
    8293 QQQ  519  NMP  N2   NG2R53    -0.098000       14.0070           0
    8294 QQQ  519  NMP  C3   CG3C52    -0.077000       12.0110           0
    8295 QQQ  519  NMP  H4   HGA2       0.090000        1.0080           0
    8296 QQQ  519  NMP  H5   HGA2       0.090000        1.0080           0
    8297 QQQ  519  NMP  C4   CG3C52    -0.233000       12.0110           0
    8298 QQQ  519  NMP  H6   HGA2       0.090000        1.0080           0
    8299 QQQ  519  NMP  H7   HGA2       0.090000        1.0080           0
    8300 QQQ  519  NMP  C5   CG3C52    -0.027000       12.0110           0
    8301 QQQ  519  NMP  H8   HGA2       0.090000        1.0080           0
    8302 QQQ  519  NMP  H9   HGA2       0.090000        1.0080           0
    8303 QQQ  519  NMP  C6   CG2R53     0.286000       12.0110           0
    8304 QQQ  519  NMP  O7   OG2D1     -0.500000       15.9990           0
    8305 QQQ  520  NMP  C1   CG331     -0.161000       12.0110           0
    8306 QQQ  520  NMP  H1   HGA3       0.090000        1.0080           0
    8307 QQQ  520  NMP  H2   HGA3       0.090000        1.0080           0
    8308 QQQ  520  NMP  H3   HGA3       0.090000        1.0080           0
    8309 QQQ  520  NMP  N2   NG2R53    -0.098000       14.0070           0
    8310 QQQ  520  NMP  C3   CG3C52    -0.077000       12.0110           0
    8311 QQQ  520  NMP  H4   HGA2       0.090000        1.0080           0
    8312 QQQ  520  NMP  H5   HGA2       0.090000        1.0080           0
    8313 QQQ  520  NMP  C4   CG3C52    -0.233000       12.0110           0
    8314 QQQ  520  NMP  H6   HGA2       0.090000        1.0080           0
    8315 QQQ  520  NMP  H7   HGA2       0.090000        1.0080           0
    8316 QQQ  520  NMP  C5   CG3C52    -0.027000       12.0110           0
    8317 QQQ  520  NMP  H8   HGA2       0.090000        1.0080           0
    8318 QQQ  520  NMP  H9   HGA2       0.090000        1.0080           0
    8319 QQQ  520  NMP  C6   CG2R53     0.286000       12.0110           0
    8320 QQQ  520  NMP  O7   OG2D1     -0.500000       15.9990           0
    8321 QQQ  521  NMP  C1   CG331     -0.161000       12.0110           0
    8322 QQQ  521  NMP  H1   HGA3       0.090000        1.0080           0
    8323 QQQ  521  NMP  H2   HGA3       0.090000        1.0080           0
    8324 QQQ  521  NMP  H3   HGA3       0.090000        1.0080           0
    8325 QQQ  521  NMP  N2   NG2R53    -0.098000       14.0070           0
    8326 QQQ  521  NMP  C3   CG3C52    -0.077000       12.0110           0
    8327 QQQ  521  NMP  H4   HGA2       0.090000        1.0080           0
    8328 QQQ  521  NMP  H5   HGA2       0.090000        1.0080           0
    8329 QQQ  521  NMP  C4   CG3C52    -0.233000       12.0110           0
    8330 QQQ  521  NMP  H6   HGA2       0.090000        1.0080           0
    8331 QQQ  521  NMP  H7   HGA2       0.090000        1.0080           0
    8332 QQQ  521  NMP  C5   CG3C52    -0.027000       12.0110           0
    8333 QQQ  521  NMP  H8   HGA2       0.090000        1.0080           0
    8334 QQQ  521  NMP  H9   HGA2       0.090000        1.0080           0
    8335 QQQ  521  NMP  C6   CG2R53     0.286000       12.0110           0
    8336 QQQ  521  NMP  O7   OG2D1     -0.500000       15.9990           0
    8337 QQQ  522  NMP  C1   CG331     -0.161000       12.0110           0
    8338 QQQ  522  NMP  H1   HGA3       0.090000        1.0080           0
    8339 QQQ  522  NMP  H2   HGA3       0.090000        1.0080           0
    8340 QQQ  522  NMP  H3   HGA3       0.090000        1.0080           0
    8341 QQQ  522  NMP  N2   NG2R53    -0.098000       14.0070           0
    8342 QQQ  522  NMP  C3   CG3C52    -0.077000       12.0110           0
    8343 QQQ  522  NMP  H4   HGA2       0.090000        1.0080           0
    8344 QQQ  522  NMP  H5   HGA2       0.090000        1.0080           0
    8345 QQQ  522  NMP  C4   CG3C52    -0.233000       12.0110           0
    8346 QQQ  522  NMP  H6   HGA2       0.090000        1.0080           0
    8347 QQQ  522  NMP  H7   HGA2       0.090000        1.0080           0
    8348 QQQ  522  NMP  C5   CG3C52    -0.027000       12.0110           0
    8349 QQQ  522  NMP  H8   HGA2       0.090000        1.0080           0
    8350 QQQ  522  NMP  H9   HGA2       0.090000        1.0080           0
    8351 QQQ  522  NMP  C6   CG2R53     0.286000       12.0110           0
    8352 QQQ  522  NMP  O7   OG2D1     -0.500000       15.9990           0
    8353 QQQ  523  NMP  C1   CG331     -0.161000       12.0110           0
    8354 QQQ  523  NMP  H1   HGA3       0.090000        1.0080           0
    8355 QQQ  523  NMP  H2   HGA3       0.090000        1.0080           0
    8356 QQQ  523  NMP  H3   HGA3       0.090000        1.0080           0
    8357 QQQ  523  NMP  N2   NG2R53    -0.098000       14.0070           0
    8358 QQQ  523  NMP  C3   CG3C52    -0.077000       12.0110           0
    8359 QQQ  523  NMP  H4   HGA2       0.090000        1.0080           0
    8360 QQQ  523  NMP  H5   HGA2       0.090000        1.0080           0
    8361 QQQ  523  NMP  C4   CG3C52    -0.233000       12.0110           0
    8362 QQQ  523  NMP  H6   HGA2       0.090000        1.0080           0
    8363 QQQ  523  NMP  H7   HGA2       0.090000        1.0080           0
    8364 QQQ  523  NMP  C5   CG3C52    -0.027000       12.0110           0
    8365 QQQ  523  NMP  H8   HGA2       0.090000        1.0080           0
    8366 QQQ  523  NMP  H9   HGA2       0.090000        1.0080           0
    8367 QQQ  523  NMP  C6   CG2R53     0.286000       12.0110           0
    8368 QQQ  523  NMP  O7   OG2D1     -0.500000       15.9990           0
    8369 QQQ  524  NMP  C1   CG331     -0.161000       12.0110           0
    8370 QQQ  524  NMP  H1   HGA3       0.090000        1.0080           0
    8371 QQQ  524  NMP  H2   HGA3       0.090000        1.0080           0
    8372 QQQ  524  NMP  H3   HGA3       0.090000        1.0080           0
    8373 QQQ  524  NMP  N2   NG2R53    -0.098000       14.0070           0
    8374 QQQ  524  NMP  C3   CG3C52    -0.077000       12.0110           0
    8375 QQQ  524  NMP  H4   HGA2       0.090000        1.0080           0
    8376 QQQ  524  NMP  H5   HGA2       0.090000        1.0080           0
    8377 QQQ  524  NMP  C4   CG3C52    -0.233000       12.0110           0
    8378 QQQ  524  NMP  H6   HGA2       0.090000        1.0080           0
    8379 QQQ  524  NMP  H7   HGA2       0.090000        1.0080           0
    8380 QQQ  524  NMP  C5   CG3C52    -0.027000       12.0110           0
    8381 QQQ  524  NMP  H8   HGA2       0.090000        1.0080           0
    8382 QQQ  524  NMP  H9   HGA2       0.090000        1.0080           0
    8383 QQQ  524  NMP  C6   CG2R53     0.286000       12.0110           0
    8384 QQQ  524  NMP  O7   OG2D1     -0.500000       15.9990           0
    8385 QQQ  525  NMP  C1   CG331     -0.161000       12.0110           0
    8386 QQQ  525  NMP  H1   HGA3       0.090000        1.0080           0
    8387 QQQ  525  NMP  H2   HGA3       0.090000        1.0080           0
    8388 QQQ  525  NMP  H3   HGA3       0.090000        1.0080           0
    8389 QQQ  525  NMP  N2   NG2R53    -0.098000       14.0070           0
    8390 QQQ  525  NMP  C3   CG3C52    -0.077000       12.0110           0
    8391 QQQ  525  NMP  H4   HGA2       0.090000        1.0080           0
    8392 QQQ  525  NMP  H5   HGA2       0.090000        1.0080           0
    8393 QQQ  525  NMP  C4   CG3C52    -0.233000       12.0110           0
    8394 QQQ  525  NMP  H6   HGA2       0.090000        1.0080           0
    8395 QQQ  525  NMP  H7   HGA2       0.090000        1.0080           0
    8396 QQQ  525  NMP  C5   CG3C52    -0.027000       12.0110           0
    8397 QQQ  525  NMP  H8   HGA2       0.090000        1.0080           0
    8398 QQQ  525  NMP  H9   HGA2       0.090000        1.0080           0
    8399 QQQ  525  NMP  C6   CG2R53     0.286000       12.0110           0
    8400 QQQ  525  NMP  O7   OG2D1     -0.500000       15.9990           0
    8401 QQQ  526  NMP  C1   CG331     -0.161000       12.0110           0
    8402 QQQ  526  NMP  H1   HGA3       0.090000        1.0080           0
    8403 QQQ  526  NMP  H2   HGA3       0.090000        1.0080           0
    8404 QQQ  526  NMP  H3   HGA3       0.090000        1.0080           0
    8405 QQQ  526  NMP  N2   NG2R53    -0.098000       14.0070           0
    8406 QQQ  526  NMP  C3   CG3C52    -0.077000       12.0110           0
    8407 QQQ  526  NMP  H4   HGA2       0.090000        1.0080           0
    8408 QQQ  526  NMP  H5   HGA2       0.090000        1.0080           0
    8409 QQQ  526  NMP  C4   CG3C52    -0.233000       12.0110           0
    8410 QQQ  526  NMP  H6   HGA2       0.090000        1.0080           0
    8411 QQQ  526  NMP  H7   HGA2       0.090000        1.0080           0
    8412 QQQ  526  NMP  C5   CG3C52    -0.027000       12.0110           0
    8413 QQQ  526  NMP  H8   HGA2       0.090000        1.0080           0
    8414 QQQ  526  NMP  H9   HGA2       0.090000        1.0080           0
    8415 QQQ  526  NMP  C6   CG2R53     0.286000       12.0110           0
    8416 QQQ  526  NMP  O7   OG2D1     -0.500000       15.9990           0
    8417 QQQ  527  NMP  C1   CG331     -0.161000       12.0110           0
    8418 QQQ  527  NMP  H1   HGA3       0.090000        1.0080           0
    8419 QQQ  527  NMP  H2   HGA3       0.090000        1.0080           0
    8420 QQQ  527  NMP  H3   HGA3       0.090000        1.0080           0
    8421 QQQ  527  NMP  N2   NG2R53    -0.098000       14.0070           0
    8422 QQQ  527  NMP  C3   CG3C52    -0.077000       12.0110           0
    8423 QQQ  527  NMP  H4   HGA2       0.090000        1.0080           0
    8424 QQQ  527  NMP  H5   HGA2       0.090000        1.0080           0
    8425 QQQ  527  NMP  C4   CG3C52    -0.233000       12.0110           0
    8426 QQQ  527  NMP  H6   HGA2       0.090000        1.0080           0
    8427 QQQ  527  NMP  H7   HGA2       0.090000        1.0080           0
    8428 QQQ  527  NMP  C5   CG3C52    -0.027000       12.0110           0
    8429 QQQ  527  NMP  H8   HGA2       0.090000        1.0080           0
    8430 QQQ  527  NMP  H9   HGA2       0.090000        1.0080           0
    8431 QQQ  527  NMP  C6   CG2R53     0.286000       12.0110           0
    8432 QQQ  527  NMP  O7   OG2D1     -0.500000       15.9990           0
    8433 QQQ  528  NMP  C1   CG331     -0.161000       12.0110           0
    8434 QQQ  528  NMP  H1   HGA3       0.090000        1.0080           0
    8435 QQQ  528  NMP  H2   HGA3       0.090000        1.0080           0
    8436 QQQ  528  NMP  H3   HGA3       0.090000        1.0080           0
    8437 QQQ  528  NMP  N2   NG2R53    -0.098000       14.0070           0
    8438 QQQ  528  NMP  C3   CG3C52    -0.077000       12.0110           0
    8439 QQQ  528  NMP  H4   HGA2       0.090000        1.0080           0
    8440 QQQ  528  NMP  H5   HGA2       0.090000        1.0080           0
    8441 QQQ  528  NMP  C4   CG3C52    -0.233000       12.0110           0
    8442 QQQ  528  NMP  H6   HGA2       0.090000        1.0080           0
    8443 QQQ  528  NMP  H7   HGA2       0.090000        1.0080           0
    8444 QQQ  528  NMP  C5   CG3C52    -0.027000       12.0110           0
    8445 QQQ  528  NMP  H8   HGA2       0.090000        1.0080           0
    8446 QQQ  528  NMP  H9   HGA2       0.090000        1.0080           0
    8447 QQQ  528  NMP  C6   CG2R53     0.286000       12.0110           0
    8448 QQQ  528  NMP  O7   OG2D1     -0.500000       15.9990           0
    8449 QQQ  529  NMP  C1   CG331     -0.161000       12.0110           0
    8450 QQQ  529  NMP  H1   HGA3       0.090000        1.0080           0
    8451 QQQ  529  NMP  H2   HGA3       0.090000        1.0080           0
    8452 QQQ  529  NMP  H3   HGA3       0.090000        1.0080           0
    8453 QQQ  529  NMP  N2   NG2R53    -0.098000       14.0070           0
    8454 QQQ  529  NMP  C3   CG3C52    -0.077000       12.0110           0
    8455 QQQ  529  NMP  H4   HGA2       0.090000        1.0080           0
    8456 QQQ  529  NMP  H5   HGA2       0.090000        1.0080           0
    8457 QQQ  529  NMP  C4   CG3C52    -0.233000       12.0110           0
    8458 QQQ  529  NMP  H6   HGA2       0.090000        1.0080           0
    8459 QQQ  529  NMP  H7   HGA2       0.090000        1.0080           0
    8460 QQQ  529  NMP  C5   CG3C52    -0.027000       12.0110           0
    8461 QQQ  529  NMP  H8   HGA2       0.090000        1.0080           0
    8462 QQQ  529  NMP  H9   HGA2       0.090000        1.0080           0
    8463 QQQ  529  NMP  C6   CG2R53     0.286000       12.0110           0
    8464 QQQ  529  NMP  O7   OG2D1     -0.500000       15.9990           0
    8465 QQQ  530  NMP  C1   CG331     -0.161000       12.0110           0
    8466 QQQ  530  NMP  H1   HGA3       0.090000        1.0080           0
    8467 QQQ  530  NMP  H2   HGA3       0.090000        1.0080           0
    8468 QQQ  530  NMP  H3   HGA3       0.090000        1.0080           0
    8469 QQQ  530  NMP  N2   NG2R53    -0.098000       14.0070           0
    8470 QQQ  530  NMP  C3   CG3C52    -0.077000       12.0110           0
    8471 QQQ  530  NMP  H4   HGA2       0.090000        1.0080           0
    8472 QQQ  530  NMP  H5   HGA2       0.090000        1.0080           0
    8473 QQQ  530  NMP  C4   CG3C52    -0.233000       12.0110           0
    8474 QQQ  530  NMP  H6   HGA2       0.090000        1.0080           0
    8475 QQQ  530  NMP  H7   HGA2       0.090000        1.0080           0
    8476 QQQ  530  NMP  C5   CG3C52    -0.027000       12.0110           0
    8477 QQQ  530  NMP  H8   HGA2       0.090000        1.0080           0
    8478 QQQ  530  NMP  H9   HGA2       0.090000        1.0080           0
    8479 QQQ  530  NMP  C6   CG2R53     0.286000       12.0110           0
    8480 QQQ  530  NMP  O7   OG2D1     -0.500000       15.9990           0
    8481 QQQ  531  NMP  C1   CG331     -0.161000       12.0110           0
    8482 QQQ  531  NMP  H1   HGA3       0.090000        1.0080           0
    8483 QQQ  531  NMP  H2   HGA3       0.090000        1.0080           0
    8484 QQQ  531  NMP  H3   HGA3       0.090000        1.0080           0
    8485 QQQ  531  NMP  N2   NG2R53    -0.098000       14.0070           0
    8486 QQQ  531  NMP  C3   CG3C52    -0.077000       12.0110           0
    8487 QQQ  531  NMP  H4   HGA2       0.090000        1.0080           0
    8488 QQQ  531  NMP  H5   HGA2       0.090000        1.0080           0
    8489 QQQ  531  NMP  C4   CG3C52    -0.233000       12.0110           0
    8490 QQQ  531  NMP  H6   HGA2       0.090000        1.0080           0
    8491 QQQ  531  NMP  H7   HGA2       0.090000        1.0080           0
    8492 QQQ  531  NMP  C5   CG3C52    -0.027000       12.0110           0
    8493 QQQ  531  NMP  H8   HGA2       0.090000        1.0080           0
    8494 QQQ  531  NMP  H9   HGA2       0.090000        1.0080           0
    8495 QQQ  531  NMP  C6   CG2R53     0.286000       12.0110           0
    8496 QQQ  531  NMP  O7   OG2D1     -0.500000       15.9990           0
    8497 QQQ  532  NMP  C1   CG331     -0.161000       12.0110           0
    8498 QQQ  532  NMP  H1   HGA3       0.090000        1.0080           0
    8499 QQQ  532  NMP  H2   HGA3       0.090000        1.0080           0
    8500 QQQ  532  NMP  H3   HGA3       0.090000        1.0080           0
    8501 QQQ  532  NMP  N2   NG2R53    -0.098000       14.0070           0
    8502 QQQ  532  NMP  C3   CG3C52    -0.077000       12.0110           0
    8503 QQQ  532  NMP  H4   HGA2       0.090000        1.0080           0
    8504 QQQ  532  NMP  H5   HGA2       0.090000        1.0080           0
    8505 QQQ  532  NMP  C4   CG3C52    -0.233000       12.0110           0
    8506 QQQ  532  NMP  H6   HGA2       0.090000        1.0080           0
    8507 QQQ  532  NMP  H7   HGA2       0.090000        1.0080           0
    8508 QQQ  532  NMP  C5   CG3C52    -0.027000       12.0110           0
    8509 QQQ  532  NMP  H8   HGA2       0.090000        1.0080           0
    8510 QQQ  532  NMP  H9   HGA2       0.090000        1.0080           0
    8511 QQQ  532  NMP  C6   CG2R53     0.286000       12.0110           0
    8512 QQQ  532  NMP  O7   OG2D1     -0.500000       15.9990           0
    8513 QQQ  533  NMP  C1   CG331     -0.161000       12.0110           0
    8514 QQQ  533  NMP  H1   HGA3       0.090000        1.0080           0
    8515 QQQ  533  NMP  H2   HGA3       0.090000        1.0080           0
    8516 QQQ  533  NMP  H3   HGA3       0.090000        1.0080           0
    8517 QQQ  533  NMP  N2   NG2R53    -0.098000       14.0070           0
    8518 QQQ  533  NMP  C3   CG3C52    -0.077000       12.0110           0
    8519 QQQ  533  NMP  H4   HGA2       0.090000        1.0080           0
    8520 QQQ  533  NMP  H5   HGA2       0.090000        1.0080           0
    8521 QQQ  533  NMP  C4   CG3C52    -0.233000       12.0110           0
    8522 QQQ  533  NMP  H6   HGA2       0.090000        1.0080           0
    8523 QQQ  533  NMP  H7   HGA2       0.090000        1.0080           0
    8524 QQQ  533  NMP  C5   CG3C52    -0.027000       12.0110           0
    8525 QQQ  533  NMP  H8   HGA2       0.090000        1.0080           0
    8526 QQQ  533  NMP  H9   HGA2       0.090000        1.0080           0
    8527 QQQ  533  NMP  C6   CG2R53     0.286000       12.0110           0
    8528 QQQ  533  NMP  O7   OG2D1     -0.500000       15.9990           0
    8529 QQQ  534  NMP  C1   CG331     -0.161000       12.0110           0
    8530 QQQ  534  NMP  H1   HGA3       0.090000        1.0080           0
    8531 QQQ  534  NMP  H2   HGA3       0.090000        1.0080           0
    8532 QQQ  534  NMP  H3   HGA3       0.090000        1.0080           0
    8533 QQQ  534  NMP  N2   NG2R53    -0.098000       14.0070           0
    8534 QQQ  534  NMP  C3   CG3C52    -0.077000       12.0110           0
    8535 QQQ  534  NMP  H4   HGA2       0.090000        1.0080           0
    8536 QQQ  534  NMP  H5   HGA2       0.090000        1.0080           0
    8537 QQQ  534  NMP  C4   CG3C52    -0.233000       12.0110           0
    8538 QQQ  534  NMP  H6   HGA2       0.090000        1.0080           0
    8539 QQQ  534  NMP  H7   HGA2       0.090000        1.0080           0
    8540 QQQ  534  NMP  C5   CG3C52    -0.027000       12.0110           0
    8541 QQQ  534  NMP  H8   HGA2       0.090000        1.0080           0
    8542 QQQ  534  NMP  H9   HGA2       0.090000        1.0080           0
    8543 QQQ  534  NMP  C6   CG2R53     0.286000       12.0110           0
    8544 QQQ  534  NMP  O7   OG2D1     -0.500000       15.9990           0
    8545 QQQ  535  NMP  C1   CG331     -0.161000       12.0110           0
    8546 QQQ  535  NMP  H1   HGA3       0.090000        1.0080           0
    8547 QQQ  535  NMP  H2   HGA3       0.090000        1.0080           0
    8548 QQQ  535  NMP  H3   HGA3       0.090000        1.0080           0
    8549 QQQ  535  NMP  N2   NG2R53    -0.098000       14.0070           0
    8550 QQQ  535  NMP  C3   CG3C52    -0.077000       12.0110           0
    8551 QQQ  535  NMP  H4   HGA2       0.090000        1.0080           0
    8552 QQQ  535  NMP  H5   HGA2       0.090000        1.0080           0
    8553 QQQ  535  NMP  C4   CG3C52    -0.233000       12.0110           0
    8554 QQQ  535  NMP  H6   HGA2       0.090000        1.0080           0
    8555 QQQ  535  NMP  H7   HGA2       0.090000        1.0080           0
    8556 QQQ  535  NMP  C5   CG3C52    -0.027000       12.0110           0
    8557 QQQ  535  NMP  H8   HGA2       0.090000        1.0080           0
    8558 QQQ  535  NMP  H9   HGA2       0.090000        1.0080           0
    8559 QQQ  535  NMP  C6   CG2R53     0.286000       12.0110           0
    8560 QQQ  535  NMP  O7   OG2D1     -0.500000       15.9990           0
    8561 QQQ  536  NMP  C1   CG331     -0.161000       12.0110           0
    8562 QQQ  536  NMP  H1   HGA3       0.090000        1.0080           0
    8563 QQQ  536  NMP  H2   HGA3       0.090000        1.0080           0
    8564 QQQ  536  NMP  H3   HGA3       0.090000        1.0080           0
    8565 QQQ  536  NMP  N2   NG2R53    -0.098000       14.0070           0
    8566 QQQ  536  NMP  C3   CG3C52    -0.077000       12.0110           0
    8567 QQQ  536  NMP  H4   HGA2       0.090000        1.0080           0
    8568 QQQ  536  NMP  H5   HGA2       0.090000        1.0080           0
    8569 QQQ  536  NMP  C4   CG3C52    -0.233000       12.0110           0
    8570 QQQ  536  NMP  H6   HGA2       0.090000        1.0080           0
    8571 QQQ  536  NMP  H7   HGA2       0.090000        1.0080           0
    8572 QQQ  536  NMP  C5   CG3C52    -0.027000       12.0110           0
    8573 QQQ  536  NMP  H8   HGA2       0.090000        1.0080           0
    8574 QQQ  536  NMP  H9   HGA2       0.090000        1.0080           0
    8575 QQQ  536  NMP  C6   CG2R53     0.286000       12.0110           0
    8576 QQQ  536  NMP  O7   OG2D1     -0.500000       15.9990           0
    8577 QQQ  537  NMP  C1   CG331     -0.161000       12.0110           0
    8578 QQQ  537  NMP  H1   HGA3       0.090000        1.0080           0
    8579 QQQ  537  NMP  H2   HGA3       0.090000        1.0080           0
    8580 QQQ  537  NMP  H3   HGA3       0.090000        1.0080           0
    8581 QQQ  537  NMP  N2   NG2R53    -0.098000       14.0070           0
    8582 QQQ  537  NMP  C3   CG3C52    -0.077000       12.0110           0
    8583 QQQ  537  NMP  H4   HGA2       0.090000        1.0080           0
    8584 QQQ  537  NMP  H5   HGA2       0.090000        1.0080           0
    8585 QQQ  537  NMP  C4   CG3C52    -0.233000       12.0110           0
    8586 QQQ  537  NMP  H6   HGA2       0.090000        1.0080           0
    8587 QQQ  537  NMP  H7   HGA2       0.090000        1.0080           0
    8588 QQQ  537  NMP  C5   CG3C52    -0.027000       12.0110           0
    8589 QQQ  537  NMP  H8   HGA2       0.090000        1.0080           0
    8590 QQQ  537  NMP  H9   HGA2       0.090000        1.0080           0
    8591 QQQ  537  NMP  C6   CG2R53     0.286000       12.0110           0
    8592 QQQ  537  NMP  O7   OG2D1     -0.500000       15.9990           0
    8593 QQQ  538  NMP  C1   CG331     -0.161000       12.0110           0
    8594 QQQ  538  NMP  H1   HGA3       0.090000        1.0080           0
    8595 QQQ  538  NMP  H2   HGA3       0.090000        1.0080           0
    8596 QQQ  538  NMP  H3   HGA3       0.090000        1.0080           0
    8597 QQQ  538  NMP  N2   NG2R53    -0.098000       14.0070           0
    8598 QQQ  538  NMP  C3   CG3C52    -0.077000       12.0110           0
    8599 QQQ  538  NMP  H4   HGA2       0.090000        1.0080           0
    8600 QQQ  538  NMP  H5   HGA2       0.090000        1.0080           0
    8601 QQQ  538  NMP  C4   CG3C52    -0.233000       12.0110           0
    8602 QQQ  538  NMP  H6   HGA2       0.090000        1.0080           0
    8603 QQQ  538  NMP  H7   HGA2       0.090000        1.0080           0
    8604 QQQ  538  NMP  C5   CG3C52    -0.027000       12.0110           0
    8605 QQQ  538  NMP  H8   HGA2       0.090000        1.0080           0
    8606 QQQ  538  NMP  H9   HGA2       0.090000        1.0080           0
    8607 QQQ  538  NMP  C6   CG2R53     0.286000       12.0110           0
    8608 QQQ  538  NMP  O7   OG2D1     -0.500000       15.9990           0
    8609 QQQ  539  NMP  C1   CG331     -0.161000       12.0110           0
    8610 QQQ  539  NMP  H1   HGA3       0.090000        1.0080           0
    8611 QQQ  539  NMP  H2   HGA3       0.090000        1.0080           0
    8612 QQQ  539  NMP  H3   HGA3       0.090000        1.0080           0
    8613 QQQ  539  NMP  N2   NG2R53    -0.098000       14.0070           0
    8614 QQQ  539  NMP  C3   CG3C52    -0.077000       12.0110           0
    8615 QQQ  539  NMP  H4   HGA2       0.090000        1.0080           0
    8616 QQQ  539  NMP  H5   HGA2       0.090000        1.0080           0
    8617 QQQ  539  NMP  C4   CG3C52    -0.233000       12.0110           0
    8618 QQQ  539  NMP  H6   HGA2       0.090000        1.0080           0
    8619 QQQ  539  NMP  H7   HGA2       0.090000        1.0080           0
    8620 QQQ  539  NMP  C5   CG3C52    -0.027000       12.0110           0
    8621 QQQ  539  NMP  H8   HGA2       0.090000        1.0080           0
    8622 QQQ  539  NMP  H9   HGA2       0.090000        1.0080           0
    8623 QQQ  539  NMP  C6   CG2R53     0.286000       12.0110           0
    8624 QQQ  539  NMP  O7   OG2D1     -0.500000       15.9990           0
    8625 QQQ  540  NMP  C1   CG331     -0.161000       12.0110           0
    8626 QQQ  540  NMP  H1   HGA3       0.090000        1.0080           0
    8627 QQQ  540  NMP  H2   HGA3       0.090000        1.0080           0
    8628 QQQ  540  NMP  H3   HGA3       0.090000        1.0080           0
    8629 QQQ  540  NMP  N2   NG2R53    -0.098000       14.0070           0
    8630 QQQ  540  NMP  C3   CG3C52    -0.077000       12.0110           0
    8631 QQQ  540  NMP  H4   HGA2       0.090000        1.0080           0
    8632 QQQ  540  NMP  H5   HGA2       0.090000        1.0080           0
    8633 QQQ  540  NMP  C4   CG3C52    -0.233000       12.0110           0
    8634 QQQ  540  NMP  H6   HGA2       0.090000        1.0080           0
    8635 QQQ  540  NMP  H7   HGA2       0.090000        1.0080           0
    8636 QQQ  540  NMP  C5   CG3C52    -0.027000       12.0110           0
    8637 QQQ  540  NMP  H8   HGA2       0.090000        1.0080           0
    8638 QQQ  540  NMP  H9   HGA2       0.090000        1.0080           0
    8639 QQQ  540  NMP  C6   CG2R53     0.286000       12.0110           0
    8640 QQQ  540  NMP  O7   OG2D1     -0.500000       15.9990           0
    8641 QQQ  541  NMP  C1   CG331     -0.161000       12.0110           0
    8642 QQQ  541  NMP  H1   HGA3       0.090000        1.0080           0
    8643 QQQ  541  NMP  H2   HGA3       0.090000        1.0080           0
    8644 QQQ  541  NMP  H3   HGA3       0.090000        1.0080           0
    8645 QQQ  541  NMP  N2   NG2R53    -0.098000       14.0070           0
    8646 QQQ  541  NMP  C3   CG3C52    -0.077000       12.0110           0
    8647 QQQ  541  NMP  H4   HGA2       0.090000        1.0080           0
    8648 QQQ  541  NMP  H5   HGA2       0.090000        1.0080           0
    8649 QQQ  541  NMP  C4   CG3C52    -0.233000       12.0110           0
    8650 QQQ  541  NMP  H6   HGA2       0.090000        1.0080           0
    8651 QQQ  541  NMP  H7   HGA2       0.090000        1.0080           0
    8652 QQQ  541  NMP  C5   CG3C52    -0.027000       12.0110           0
    8653 QQQ  541  NMP  H8   HGA2       0.090000        1.0080           0
    8654 QQQ  541  NMP  H9   HGA2       0.090000        1.0080           0
    8655 QQQ  541  NMP  C6   CG2R53     0.286000       12.0110           0
    8656 QQQ  541  NMP  O7   OG2D1     -0.500000       15.9990           0
    8657 QQQ  542  NMP  C1   CG331     -0.161000       12.0110           0
    8658 QQQ  542  NMP  H1   HGA3       0.090000        1.0080           0
    8659 QQQ  542  NMP  H2   HGA3       0.090000        1.0080           0
    8660 QQQ  542  NMP  H3   HGA3       0.090000        1.0080           0
    8661 QQQ  542  NMP  N2   NG2R53    -0.098000       14.0070           0
    8662 QQQ  542  NMP  C3   CG3C52    -0.077000       12.0110           0
    8663 QQQ  542  NMP  H4   HGA2       0.090000        1.0080           0
    8664 QQQ  542  NMP  H5   HGA2       0.090000        1.0080           0
    8665 QQQ  542  NMP  C4   CG3C52    -0.233000       12.0110           0
    8666 QQQ  542  NMP  H6   HGA2       0.090000        1.0080           0
    8667 QQQ  542  NMP  H7   HGA2       0.090000        1.0080           0
    8668 QQQ  542  NMP  C5   CG3C52    -0.027000       12.0110           0
    8669 QQQ  542  NMP  H8   HGA2       0.090000        1.0080           0
    8670 QQQ  542  NMP  H9   HGA2       0.090000        1.0080           0
    8671 QQQ  542  NMP  C6   CG2R53     0.286000       12.0110           0
    8672 QQQ  542  NMP  O7   OG2D1     -0.500000       15.9990           0
    8673 QQQ  543  NMP  C1   CG331     -0.161000       12.0110           0
    8674 QQQ  543  NMP  H1   HGA3       0.090000        1.0080           0
    8675 QQQ  543  NMP  H2   HGA3       0.090000        1.0080           0
    8676 QQQ  543  NMP  H3   HGA3       0.090000        1.0080           0
    8677 QQQ  543  NMP  N2   NG2R53    -0.098000       14.0070           0
    8678 QQQ  543  NMP  C3   CG3C52    -0.077000       12.0110           0
    8679 QQQ  543  NMP  H4   HGA2       0.090000        1.0080           0
    8680 QQQ  543  NMP  H5   HGA2       0.090000        1.0080           0
    8681 QQQ  543  NMP  C4   CG3C52    -0.233000       12.0110           0
    8682 QQQ  543  NMP  H6   HGA2       0.090000        1.0080           0
    8683 QQQ  543  NMP  H7   HGA2       0.090000        1.0080           0
    8684 QQQ  543  NMP  C5   CG3C52    -0.027000       12.0110           0
    8685 QQQ  543  NMP  H8   HGA2       0.090000        1.0080           0
    8686 QQQ  543  NMP  H9   HGA2       0.090000        1.0080           0
    8687 QQQ  543  NMP  C6   CG2R53     0.286000       12.0110           0
    8688 QQQ  543  NMP  O7   OG2D1     -0.500000       15.9990           0
    8689 QQQ  544  NMP  C1   CG331     -0.161000       12.0110           0
    8690 QQQ  544  NMP  H1   HGA3       0.090000        1.0080           0
    8691 QQQ  544  NMP  H2   HGA3       0.090000        1.0080           0
    8692 QQQ  544  NMP  H3   HGA3       0.090000        1.0080           0
    8693 QQQ  544  NMP  N2   NG2R53    -0.098000       14.0070           0
    8694 QQQ  544  NMP  C3   CG3C52    -0.077000       12.0110           0
    8695 QQQ  544  NMP  H4   HGA2       0.090000        1.0080           0
    8696 QQQ  544  NMP  H5   HGA2       0.090000        1.0080           0
    8697 QQQ  544  NMP  C4   CG3C52    -0.233000       12.0110           0
    8698 QQQ  544  NMP  H6   HGA2       0.090000        1.0080           0
    8699 QQQ  544  NMP  H7   HGA2       0.090000        1.0080           0
    8700 QQQ  544  NMP  C5   CG3C52    -0.027000       12.0110           0
    8701 QQQ  544  NMP  H8   HGA2       0.090000        1.0080           0
    8702 QQQ  544  NMP  H9   HGA2       0.090000        1.0080           0
    8703 QQQ  544  NMP  C6   CG2R53     0.286000       12.0110           0
    8704 QQQ  544  NMP  O7   OG2D1     -0.500000       15.9990           0
    8705 QQQ  545  NMP  C1   CG331     -0.161000       12.0110           0
    8706 QQQ  545  NMP  H1   HGA3       0.090000        1.0080           0
    8707 QQQ  545  NMP  H2   HGA3       0.090000        1.0080           0
    8708 QQQ  545  NMP  H3   HGA3       0.090000        1.0080           0
    8709 QQQ  545  NMP  N2   NG2R53    -0.098000       14.0070           0
    8710 QQQ  545  NMP  C3   CG3C52    -0.077000       12.0110           0
    8711 QQQ  545  NMP  H4   HGA2       0.090000        1.0080           0
    8712 QQQ  545  NMP  H5   HGA2       0.090000        1.0080           0
    8713 QQQ  545  NMP  C4   CG3C52    -0.233000       12.0110           0
    8714 QQQ  545  NMP  H6   HGA2       0.090000        1.0080           0
    8715 QQQ  545  NMP  H7   HGA2       0.090000        1.0080           0
    8716 QQQ  545  NMP  C5   CG3C52    -0.027000       12.0110           0
    8717 QQQ  545  NMP  H8   HGA2       0.090000        1.0080           0
    8718 QQQ  545  NMP  H9   HGA2       0.090000        1.0080           0
    8719 QQQ  545  NMP  C6   CG2R53     0.286000       12.0110           0
    8720 QQQ  545  NMP  O7   OG2D1     -0.500000       15.9990           0
    8721 QQQ  546  NMP  C1   CG331     -0.161000       12.0110           0
    8722 QQQ  546  NMP  H1   HGA3       0.090000        1.0080           0
    8723 QQQ  546  NMP  H2   HGA3       0.090000        1.0080           0
    8724 QQQ  546  NMP  H3   HGA3       0.090000        1.0080           0
    8725 QQQ  546  NMP  N2   NG2R53    -0.098000       14.0070           0
    8726 QQQ  546  NMP  C3   CG3C52    -0.077000       12.0110           0
    8727 QQQ  546  NMP  H4   HGA2       0.090000        1.0080           0
    8728 QQQ  546  NMP  H5   HGA2       0.090000        1.0080           0
    8729 QQQ  546  NMP  C4   CG3C52    -0.233000       12.0110           0
    8730 QQQ  546  NMP  H6   HGA2       0.090000        1.0080           0
    8731 QQQ  546  NMP  H7   HGA2       0.090000        1.0080           0
    8732 QQQ  546  NMP  C5   CG3C52    -0.027000       12.0110           0
    8733 QQQ  546  NMP  H8   HGA2       0.090000        1.0080           0
    8734 QQQ  546  NMP  H9   HGA2       0.090000        1.0080           0
    8735 QQQ  546  NMP  C6   CG2R53     0.286000       12.0110           0
    8736 QQQ  546  NMP  O7   OG2D1     -0.500000       15.9990           0
    8737 QQQ  547  NMP  C1   CG331     -0.161000       12.0110           0
    8738 QQQ  547  NMP  H1   HGA3       0.090000        1.0080           0
    8739 QQQ  547  NMP  H2   HGA3       0.090000        1.0080           0
    8740 QQQ  547  NMP  H3   HGA3       0.090000        1.0080           0
    8741 QQQ  547  NMP  N2   NG2R53    -0.098000       14.0070           0
    8742 QQQ  547  NMP  C3   CG3C52    -0.077000       12.0110           0
    8743 QQQ  547  NMP  H4   HGA2       0.090000        1.0080           0
    8744 QQQ  547  NMP  H5   HGA2       0.090000        1.0080           0
    8745 QQQ  547  NMP  C4   CG3C52    -0.233000       12.0110           0
    8746 QQQ  547  NMP  H6   HGA2       0.090000        1.0080           0
    8747 QQQ  547  NMP  H7   HGA2       0.090000        1.0080           0
    8748 QQQ  547  NMP  C5   CG3C52    -0.027000       12.0110           0
    8749 QQQ  547  NMP  H8   HGA2       0.090000        1.0080           0
    8750 QQQ  547  NMP  H9   HGA2       0.090000        1.0080           0
    8751 QQQ  547  NMP  C6   CG2R53     0.286000       12.0110           0
    8752 QQQ  547  NMP  O7   OG2D1     -0.500000       15.9990           0
    8753 QQQ  548  NMP  C1   CG331     -0.161000       12.0110           0
    8754 QQQ  548  NMP  H1   HGA3       0.090000        1.0080           0
    8755 QQQ  548  NMP  H2   HGA3       0.090000        1.0080           0
    8756 QQQ  548  NMP  H3   HGA3       0.090000        1.0080           0
    8757 QQQ  548  NMP  N2   NG2R53    -0.098000       14.0070           0
    8758 QQQ  548  NMP  C3   CG3C52    -0.077000       12.0110           0
    8759 QQQ  548  NMP  H4   HGA2       0.090000        1.0080           0
    8760 QQQ  548  NMP  H5   HGA2       0.090000        1.0080           0
    8761 QQQ  548  NMP  C4   CG3C52    -0.233000       12.0110           0
    8762 QQQ  548  NMP  H6   HGA2       0.090000        1.0080           0
    8763 QQQ  548  NMP  H7   HGA2       0.090000        1.0080           0
    8764 QQQ  548  NMP  C5   CG3C52    -0.027000       12.0110           0
    8765 QQQ  548  NMP  H8   HGA2       0.090000        1.0080           0
    8766 QQQ  548  NMP  H9   HGA2       0.090000        1.0080           0
    8767 QQQ  548  NMP  C6   CG2R53     0.286000       12.0110           0
    8768 QQQ  548  NMP  O7   OG2D1     -0.500000       15.9990           0
    8769 QQQ  549  NMP  C1   CG331     -0.161000       12.0110           0
    8770 QQQ  549  NMP  H1   HGA3       0.090000        1.0080           0
    8771 QQQ  549  NMP  H2   HGA3       0.090000        1.0080           0
    8772 QQQ  549  NMP  H3   HGA3       0.090000        1.0080           0
    8773 QQQ  549  NMP  N2   NG2R53    -0.098000       14.0070           0
    8774 QQQ  549  NMP  C3   CG3C52    -0.077000       12.0110           0
    8775 QQQ  549  NMP  H4   HGA2       0.090000        1.0080           0
    8776 QQQ  549  NMP  H5   HGA2       0.090000        1.0080           0
    8777 QQQ  549  NMP  C4   CG3C52    -0.233000       12.0110           0
    8778 QQQ  549  NMP  H6   HGA2       0.090000        1.0080           0
    8779 QQQ  549  NMP  H7   HGA2       0.090000        1.0080           0
    8780 QQQ  549  NMP  C5   CG3C52    -0.027000       12.0110           0
    8781 QQQ  549  NMP  H8   HGA2       0.090000        1.0080           0
    8782 QQQ  549  NMP  H9   HGA2       0.090000        1.0080           0
    8783 QQQ  549  NMP  C6   CG2R53     0.286000       12.0110           0
    8784 QQQ  549  NMP  O7   OG2D1     -0.500000       15.9990           0
    8785 QQQ  550  NMP  C1   CG331     -0.161000       12.0110           0
    8786 QQQ  550  NMP  H1   HGA3       0.090000        1.0080           0
    8787 QQQ  550  NMP  H2   HGA3       0.090000        1.0080           0
    8788 QQQ  550  NMP  H3   HGA3       0.090000        1.0080           0
    8789 QQQ  550  NMP  N2   NG2R53    -0.098000       14.0070           0
    8790 QQQ  550  NMP  C3   CG3C52    -0.077000       12.0110           0
    8791 QQQ  550  NMP  H4   HGA2       0.090000        1.0080           0
    8792 QQQ  550  NMP  H5   HGA2       0.090000        1.0080           0
    8793 QQQ  550  NMP  C4   CG3C52    -0.233000       12.0110           0
    8794 QQQ  550  NMP  H6   HGA2       0.090000        1.0080           0
    8795 QQQ  550  NMP  H7   HGA2       0.090000        1.0080           0
    8796 QQQ  550  NMP  C5   CG3C52    -0.027000       12.0110           0
    8797 QQQ  550  NMP  H8   HGA2       0.090000        1.0080           0
    8798 QQQ  550  NMP  H9   HGA2       0.090000        1.0080           0
    8799 QQQ  550  NMP  C6   CG2R53     0.286000       12.0110           0
    8800 QQQ  550  NMP  O7   OG2D1     -0.500000       15.9990           0
    8801 QQQ  551  NMP  C1   CG331     -0.161000       12.0110           0
    8802 QQQ  551  NMP  H1   HGA3       0.090000        1.0080           0
    8803 QQQ  551  NMP  H2   HGA3       0.090000        1.0080           0
    8804 QQQ  551  NMP  H3   HGA3       0.090000        1.0080           0
    8805 QQQ  551  NMP  N2   NG2R53    -0.098000       14.0070           0
    8806 QQQ  551  NMP  C3   CG3C52    -0.077000       12.0110           0
    8807 QQQ  551  NMP  H4   HGA2       0.090000        1.0080           0
    8808 QQQ  551  NMP  H5   HGA2       0.090000        1.0080           0
    8809 QQQ  551  NMP  C4   CG3C52    -0.233000       12.0110           0
    8810 QQQ  551  NMP  H6   HGA2       0.090000        1.0080           0
    8811 QQQ  551  NMP  H7   HGA2       0.090000        1.0080           0
    8812 QQQ  551  NMP  C5   CG3C52    -0.027000       12.0110           0
    8813 QQQ  551  NMP  H8   HGA2       0.090000        1.0080           0
    8814 QQQ  551  NMP  H9   HGA2       0.090000        1.0080           0
    8815 QQQ  551  NMP  C6   CG2R53     0.286000       12.0110           0
    8816 QQQ  551  NMP  O7   OG2D1     -0.500000       15.9990           0
    8817 QQQ  552  NMP  C1   CG331     -0.161000       12.0110           0
    8818 QQQ  552  NMP  H1   HGA3       0.090000        1.0080           0
    8819 QQQ  552  NMP  H2   HGA3       0.090000        1.0080           0
    8820 QQQ  552  NMP  H3   HGA3       0.090000        1.0080           0
    8821 QQQ  552  NMP  N2   NG2R53    -0.098000       14.0070           0
    8822 QQQ  552  NMP  C3   CG3C52    -0.077000       12.0110           0
    8823 QQQ  552  NMP  H4   HGA2       0.090000        1.0080           0
    8824 QQQ  552  NMP  H5   HGA2       0.090000        1.0080           0
    8825 QQQ  552  NMP  C4   CG3C52    -0.233000       12.0110           0
    8826 QQQ  552  NMP  H6   HGA2       0.090000        1.0080           0
    8827 QQQ  552  NMP  H7   HGA2       0.090000        1.0080           0
    8828 QQQ  552  NMP  C5   CG3C52    -0.027000       12.0110           0
    8829 QQQ  552  NMP  H8   HGA2       0.090000        1.0080           0
    8830 QQQ  552  NMP  H9   HGA2       0.090000        1.0080           0
    8831 QQQ  552  NMP  C6   CG2R53     0.286000       12.0110           0
    8832 QQQ  552  NMP  O7   OG2D1     -0.500000       15.9990           0
    8833 QQQ  553  NMP  C1   CG331     -0.161000       12.0110           0
    8834 QQQ  553  NMP  H1   HGA3       0.090000        1.0080           0
    8835 QQQ  553  NMP  H2   HGA3       0.090000        1.0080           0
    8836 QQQ  553  NMP  H3   HGA3       0.090000        1.0080           0
    8837 QQQ  553  NMP  N2   NG2R53    -0.098000       14.0070           0
    8838 QQQ  553  NMP  C3   CG3C52    -0.077000       12.0110           0
    8839 QQQ  553  NMP  H4   HGA2       0.090000        1.0080           0
    8840 QQQ  553  NMP  H5   HGA2       0.090000        1.0080           0
    8841 QQQ  553  NMP  C4   CG3C52    -0.233000       12.0110           0
    8842 QQQ  553  NMP  H6   HGA2       0.090000        1.0080           0
    8843 QQQ  553  NMP  H7   HGA2       0.090000        1.0080           0
    8844 QQQ  553  NMP  C5   CG3C52    -0.027000       12.0110           0
    8845 QQQ  553  NMP  H8   HGA2       0.090000        1.0080           0
    8846 QQQ  553  NMP  H9   HGA2       0.090000        1.0080           0
    8847 QQQ  553  NMP  C6   CG2R53     0.286000       12.0110           0
    8848 QQQ  553  NMP  O7   OG2D1     -0.500000       15.9990           0
    8849 QQQ  554  NMP  C1   CG331     -0.161000       12.0110           0
    8850 QQQ  554  NMP  H1   HGA3       0.090000        1.0080           0
    8851 QQQ  554  NMP  H2   HGA3       0.090000        1.0080           0
    8852 QQQ  554  NMP  H3   HGA3       0.090000        1.0080           0
    8853 QQQ  554  NMP  N2   NG2R53    -0.098000       14.0070           0
    8854 QQQ  554  NMP  C3   CG3C52    -0.077000       12.0110           0
    8855 QQQ  554  NMP  H4   HGA2       0.090000        1.0080           0
    8856 QQQ  554  NMP  H5   HGA2       0.090000        1.0080           0
    8857 QQQ  554  NMP  C4   CG3C52    -0.233000       12.0110           0
    8858 QQQ  554  NMP  H6   HGA2       0.090000        1.0080           0
    8859 QQQ  554  NMP  H7   HGA2       0.090000        1.0080           0
    8860 QQQ  554  NMP  C5   CG3C52    -0.027000       12.0110           0
    8861 QQQ  554  NMP  H8   HGA2       0.090000        1.0080           0
    8862 QQQ  554  NMP  H9   HGA2       0.090000        1.0080           0
    8863 QQQ  554  NMP  C6   CG2R53     0.286000       12.0110           0
    8864 QQQ  554  NMP  O7   OG2D1     -0.500000       15.9990           0
    8865 QQQ  555  NMP  C1   CG331     -0.161000       12.0110           0
    8866 QQQ  555  NMP  H1   HGA3       0.090000        1.0080           0
    8867 QQQ  555  NMP  H2   HGA3       0.090000        1.0080           0
    8868 QQQ  555  NMP  H3   HGA3       0.090000        1.0080           0
    8869 QQQ  555  NMP  N2   NG2R53    -0.098000       14.0070           0
    8870 QQQ  555  NMP  C3   CG3C52    -0.077000       12.0110           0
    8871 QQQ  555  NMP  H4   HGA2       0.090000        1.0080           0
    8872 QQQ  555  NMP  H5   HGA2       0.090000        1.0080           0
    8873 QQQ  555  NMP  C4   CG3C52    -0.233000       12.0110           0
    8874 QQQ  555  NMP  H6   HGA2       0.090000        1.0080           0
    8875 QQQ  555  NMP  H7   HGA2       0.090000        1.0080           0
    8876 QQQ  555  NMP  C5   CG3C52    -0.027000       12.0110           0
    8877 QQQ  555  NMP  H8   HGA2       0.090000        1.0080           0
    8878 QQQ  555  NMP  H9   HGA2       0.090000        1.0080           0
    8879 QQQ  555  NMP  C6   CG2R53     0.286000       12.0110           0
    8880 QQQ  555  NMP  O7   OG2D1     -0.500000       15.9990           0
    8881 QQQ  556  NMP  C1   CG331     -0.161000       12.0110           0
    8882 QQQ  556  NMP  H1   HGA3       0.090000        1.0080           0
    8883 QQQ  556  NMP  H2   HGA3       0.090000        1.0080           0
    8884 QQQ  556  NMP  H3   HGA3       0.090000        1.0080           0
    8885 QQQ  556  NMP  N2   NG2R53    -0.098000       14.0070           0
    8886 QQQ  556  NMP  C3   CG3C52    -0.077000       12.0110           0
    8887 QQQ  556  NMP  H4   HGA2       0.090000        1.0080           0
    8888 QQQ  556  NMP  H5   HGA2       0.090000        1.0080           0
    8889 QQQ  556  NMP  C4   CG3C52    -0.233000       12.0110           0
    8890 QQQ  556  NMP  H6   HGA2       0.090000        1.0080           0
    8891 QQQ  556  NMP  H7   HGA2       0.090000        1.0080           0
    8892 QQQ  556  NMP  C5   CG3C52    -0.027000       12.0110           0
    8893 QQQ  556  NMP  H8   HGA2       0.090000        1.0080           0
    8894 QQQ  556  NMP  H9   HGA2       0.090000        1.0080           0
    8895 QQQ  556  NMP  C6   CG2R53     0.286000       12.0110           0
    8896 QQQ  556  NMP  O7   OG2D1     -0.500000       15.9990           0
    8897 QQQ  557  NMP  C1   CG331     -0.161000       12.0110           0
    8898 QQQ  557  NMP  H1   HGA3       0.090000        1.0080           0
    8899 QQQ  557  NMP  H2   HGA3       0.090000        1.0080           0
    8900 QQQ  557  NMP  H3   HGA3       0.090000        1.0080           0
    8901 QQQ  557  NMP  N2   NG2R53    -0.098000       14.0070           0
    8902 QQQ  557  NMP  C3   CG3C52    -0.077000       12.0110           0
    8903 QQQ  557  NMP  H4   HGA2       0.090000        1.0080           0
    8904 QQQ  557  NMP  H5   HGA2       0.090000        1.0080           0
    8905 QQQ  557  NMP  C4   CG3C52    -0.233000       12.0110           0
    8906 QQQ  557  NMP  H6   HGA2       0.090000        1.0080           0
    8907 QQQ  557  NMP  H7   HGA2       0.090000        1.0080           0
    8908 QQQ  557  NMP  C5   CG3C52    -0.027000       12.0110           0
    8909 QQQ  557  NMP  H8   HGA2       0.090000        1.0080           0
    8910 QQQ  557  NMP  H9   HGA2       0.090000        1.0080           0
    8911 QQQ  557  NMP  C6   CG2R53     0.286000       12.0110           0
    8912 QQQ  557  NMP  O7   OG2D1     -0.500000       15.9990           0
    8913 QQQ  558  NMP  C1   CG331     -0.161000       12.0110           0
    8914 QQQ  558  NMP  H1   HGA3       0.090000        1.0080           0
    8915 QQQ  558  NMP  H2   HGA3       0.090000        1.0080           0
    8916 QQQ  558  NMP  H3   HGA3       0.090000        1.0080           0
    8917 QQQ  558  NMP  N2   NG2R53    -0.098000       14.0070           0
    8918 QQQ  558  NMP  C3   CG3C52    -0.077000       12.0110           0
    8919 QQQ  558  NMP  H4   HGA2       0.090000        1.0080           0
    8920 QQQ  558  NMP  H5   HGA2       0.090000        1.0080           0
    8921 QQQ  558  NMP  C4   CG3C52    -0.233000       12.0110           0
    8922 QQQ  558  NMP  H6   HGA2       0.090000        1.0080           0
    8923 QQQ  558  NMP  H7   HGA2       0.090000        1.0080           0
    8924 QQQ  558  NMP  C5   CG3C52    -0.027000       12.0110           0
    8925 QQQ  558  NMP  H8   HGA2       0.090000        1.0080           0
    8926 QQQ  558  NMP  H9   HGA2       0.090000        1.0080           0
    8927 QQQ  558  NMP  C6   CG2R53     0.286000       12.0110           0
    8928 QQQ  558  NMP  O7   OG2D1     -0.500000       15.9990           0
    8929 QQQ  559  NMP  C1   CG331     -0.161000       12.0110           0
    8930 QQQ  559  NMP  H1   HGA3       0.090000        1.0080           0
    8931 QQQ  559  NMP  H2   HGA3       0.090000        1.0080           0
    8932 QQQ  559  NMP  H3   HGA3       0.090000        1.0080           0
    8933 QQQ  559  NMP  N2   NG2R53    -0.098000       14.0070           0
    8934 QQQ  559  NMP  C3   CG3C52    -0.077000       12.0110           0
    8935 QQQ  559  NMP  H4   HGA2       0.090000        1.0080           0
    8936 QQQ  559  NMP  H5   HGA2       0.090000        1.0080           0
    8937 QQQ  559  NMP  C4   CG3C52    -0.233000       12.0110           0
    8938 QQQ  559  NMP  H6   HGA2       0.090000        1.0080           0
    8939 QQQ  559  NMP  H7   HGA2       0.090000        1.0080           0
    8940 QQQ  559  NMP  C5   CG3C52    -0.027000       12.0110           0
    8941 QQQ  559  NMP  H8   HGA2       0.090000        1.0080           0
    8942 QQQ  559  NMP  H9   HGA2       0.090000        1.0080           0
    8943 QQQ  559  NMP  C6   CG2R53     0.286000       12.0110           0
    8944 QQQ  559  NMP  O7   OG2D1     -0.500000       15.9990           0
    8945 QQQ  560  NMP  C1   CG331     -0.161000       12.0110           0
    8946 QQQ  560  NMP  H1   HGA3       0.090000        1.0080           0
    8947 QQQ  560  NMP  H2   HGA3       0.090000        1.0080           0
    8948 QQQ  560  NMP  H3   HGA3       0.090000        1.0080           0
    8949 QQQ  560  NMP  N2   NG2R53    -0.098000       14.0070           0
    8950 QQQ  560  NMP  C3   CG3C52    -0.077000       12.0110           0
    8951 QQQ  560  NMP  H4   HGA2       0.090000        1.0080           0
    8952 QQQ  560  NMP  H5   HGA2       0.090000        1.0080           0
    8953 QQQ  560  NMP  C4   CG3C52    -0.233000       12.0110           0
    8954 QQQ  560  NMP  H6   HGA2       0.090000        1.0080           0
    8955 QQQ  560  NMP  H7   HGA2       0.090000        1.0080           0
    8956 QQQ  560  NMP  C5   CG3C52    -0.027000       12.0110           0
    8957 QQQ  560  NMP  H8   HGA2       0.090000        1.0080           0
    8958 QQQ  560  NMP  H9   HGA2       0.090000        1.0080           0
    8959 QQQ  560  NMP  C6   CG2R53     0.286000       12.0110           0
    8960 QQQ  560  NMP  O7   OG2D1     -0.500000       15.9990           0
    8961 QQQ  561  NMP  C1   CG331     -0.161000       12.0110           0
    8962 QQQ  561  NMP  H1   HGA3       0.090000        1.0080           0
    8963 QQQ  561  NMP  H2   HGA3       0.090000        1.0080           0
    8964 QQQ  561  NMP  H3   HGA3       0.090000        1.0080           0
    8965 QQQ  561  NMP  N2   NG2R53    -0.098000       14.0070           0
    8966 QQQ  561  NMP  C3   CG3C52    -0.077000       12.0110           0
    8967 QQQ  561  NMP  H4   HGA2       0.090000        1.0080           0
    8968 QQQ  561  NMP  H5   HGA2       0.090000        1.0080           0
    8969 QQQ  561  NMP  C4   CG3C52    -0.233000       12.0110           0
    8970 QQQ  561  NMP  H6   HGA2       0.090000        1.0080           0
    8971 QQQ  561  NMP  H7   HGA2       0.090000        1.0080           0
    8972 QQQ  561  NMP  C5   CG3C52    -0.027000       12.0110           0
    8973 QQQ  561  NMP  H8   HGA2       0.090000        1.0080           0
    8974 QQQ  561  NMP  H9   HGA2       0.090000        1.0080           0
    8975 QQQ  561  NMP  C6   CG2R53     0.286000       12.0110           0
    8976 QQQ  561  NMP  O7   OG2D1     -0.500000       15.9990           0
    8977 QQQ  562  NMP  C1   CG331     -0.161000       12.0110           0
    8978 QQQ  562  NMP  H1   HGA3       0.090000        1.0080           0
    8979 QQQ  562  NMP  H2   HGA3       0.090000        1.0080           0
    8980 QQQ  562  NMP  H3   HGA3       0.090000        1.0080           0
    8981 QQQ  562  NMP  N2   NG2R53    -0.098000       14.0070           0
    8982 QQQ  562  NMP  C3   CG3C52    -0.077000       12.0110           0
    8983 QQQ  562  NMP  H4   HGA2       0.090000        1.0080           0
    8984 QQQ  562  NMP  H5   HGA2       0.090000        1.0080           0
    8985 QQQ  562  NMP  C4   CG3C52    -0.233000       12.0110           0
    8986 QQQ  562  NMP  H6   HGA2       0.090000        1.0080           0
    8987 QQQ  562  NMP  H7   HGA2       0.090000        1.0080           0
    8988 QQQ  562  NMP  C5   CG3C52    -0.027000       12.0110           0
    8989 QQQ  562  NMP  H8   HGA2       0.090000        1.0080           0
    8990 QQQ  562  NMP  H9   HGA2       0.090000        1.0080           0
    8991 QQQ  562  NMP  C6   CG2R53     0.286000       12.0110           0
    8992 QQQ  562  NMP  O7   OG2D1     -0.500000       15.9990           0
    8993 QQQ  563  NMP  C1   CG331     -0.161000       12.0110           0
    8994 QQQ  563  NMP  H1   HGA3       0.090000        1.0080           0
    8995 QQQ  563  NMP  H2   HGA3       0.090000        1.0080           0
    8996 QQQ  563  NMP  H3   HGA3       0.090000        1.0080           0
    8997 QQQ  563  NMP  N2   NG2R53    -0.098000       14.0070           0
    8998 QQQ  563  NMP  C3   CG3C52    -0.077000       12.0110           0
    8999 QQQ  563  NMP  H4   HGA2       0.090000        1.0080           0
    9000 QQQ  563  NMP  H5   HGA2       0.090000        1.0080           0
    9001 QQQ  563  NMP  C4   CG3C52    -0.233000       12.0110           0
    9002 QQQ  563  NMP  H6   HGA2       0.090000        1.0080           0
    9003 QQQ  563  NMP  H7   HGA2       0.090000        1.0080           0
    9004 QQQ  563  NMP  C5   CG3C52    -0.027000       12.0110           0
    9005 QQQ  563  NMP  H8   HGA2       0.090000        1.0080           0
    9006 QQQ  563  NMP  H9   HGA2       0.090000        1.0080           0
    9007 QQQ  563  NMP  C6   CG2R53     0.286000       12.0110           0
    9008 QQQ  563  NMP  O7   OG2D1     -0.500000       15.9990           0
    9009 QQQ  564  NMP  C1   CG331     -0.161000       12.0110           0
    9010 QQQ  564  NMP  H1   HGA3       0.090000        1.0080           0
    9011 QQQ  564  NMP  H2   HGA3       0.090000        1.0080           0
    9012 QQQ  564  NMP  H3   HGA3       0.090000        1.0080           0
    9013 QQQ  564  NMP  N2   NG2R53    -0.098000       14.0070           0
    9014 QQQ  564  NMP  C3   CG3C52    -0.077000       12.0110           0
    9015 QQQ  564  NMP  H4   HGA2       0.090000        1.0080           0
    9016 QQQ  564  NMP  H5   HGA2       0.090000        1.0080           0
    9017 QQQ  564  NMP  C4   CG3C52    -0.233000       12.0110           0
    9018 QQQ  564  NMP  H6   HGA2       0.090000        1.0080           0
    9019 QQQ  564  NMP  H7   HGA2       0.090000        1.0080           0
    9020 QQQ  564  NMP  C5   CG3C52    -0.027000       12.0110           0
    9021 QQQ  564  NMP  H8   HGA2       0.090000        1.0080           0
    9022 QQQ  564  NMP  H9   HGA2       0.090000        1.0080           0
    9023 QQQ  564  NMP  C6   CG2R53     0.286000       12.0110           0
    9024 QQQ  564  NMP  O7   OG2D1     -0.500000       15.9990           0
    9025 QQQ  565  NMP  C1   CG331     -0.161000       12.0110           0
    9026 QQQ  565  NMP  H1   HGA3       0.090000        1.0080           0
    9027 QQQ  565  NMP  H2   HGA3       0.090000        1.0080           0
    9028 QQQ  565  NMP  H3   HGA3       0.090000        1.0080           0
    9029 QQQ  565  NMP  N2   NG2R53    -0.098000       14.0070           0
    9030 QQQ  565  NMP  C3   CG3C52    -0.077000       12.0110           0
    9031 QQQ  565  NMP  H4   HGA2       0.090000        1.0080           0
    9032 QQQ  565  NMP  H5   HGA2       0.090000        1.0080           0
    9033 QQQ  565  NMP  C4   CG3C52    -0.233000       12.0110           0
    9034 QQQ  565  NMP  H6   HGA2       0.090000        1.0080           0
    9035 QQQ  565  NMP  H7   HGA2       0.090000        1.0080           0
    9036 QQQ  565  NMP  C5   CG3C52    -0.027000       12.0110           0
    9037 QQQ  565  NMP  H8   HGA2       0.090000        1.0080           0
    9038 QQQ  565  NMP  H9   HGA2       0.090000        1.0080           0
    9039 QQQ  565  NMP  C6   CG2R53     0.286000       12.0110           0
    9040 QQQ  565  NMP  O7   OG2D1     -0.500000       15.9990           0
    9041 QQQ  566  NMP  C1   CG331     -0.161000       12.0110           0
    9042 QQQ  566  NMP  H1   HGA3       0.090000        1.0080           0
    9043 QQQ  566  NMP  H2   HGA3       0.090000        1.0080           0
    9044 QQQ  566  NMP  H3   HGA3       0.090000        1.0080           0
    9045 QQQ  566  NMP  N2   NG2R53    -0.098000       14.0070           0
    9046 QQQ  566  NMP  C3   CG3C52    -0.077000       12.0110           0
    9047 QQQ  566  NMP  H4   HGA2       0.090000        1.0080           0
    9048 QQQ  566  NMP  H5   HGA2       0.090000        1.0080           0
    9049 QQQ  566  NMP  C4   CG3C52    -0.233000       12.0110           0
    9050 QQQ  566  NMP  H6   HGA2       0.090000        1.0080           0
    9051 QQQ  566  NMP  H7   HGA2       0.090000        1.0080           0
    9052 QQQ  566  NMP  C5   CG3C52    -0.027000       12.0110           0
    9053 QQQ  566  NMP  H8   HGA2       0.090000        1.0080           0
    9054 QQQ  566  NMP  H9   HGA2       0.090000        1.0080           0
    9055 QQQ  566  NMP  C6   CG2R53     0.286000       12.0110           0
    9056 QQQ  566  NMP  O7   OG2D1     -0.500000       15.9990           0
    9057 QQQ  567  NMP  C1   CG331     -0.161000       12.0110           0
    9058 QQQ  567  NMP  H1   HGA3       0.090000        1.0080           0
    9059 QQQ  567  NMP  H2   HGA3       0.090000        1.0080           0
    9060 QQQ  567  NMP  H3   HGA3       0.090000        1.0080           0
    9061 QQQ  567  NMP  N2   NG2R53    -0.098000       14.0070           0
    9062 QQQ  567  NMP  C3   CG3C52    -0.077000       12.0110           0
    9063 QQQ  567  NMP  H4   HGA2       0.090000        1.0080           0
    9064 QQQ  567  NMP  H5   HGA2       0.090000        1.0080           0
    9065 QQQ  567  NMP  C4   CG3C52    -0.233000       12.0110           0
    9066 QQQ  567  NMP  H6   HGA2       0.090000        1.0080           0
    9067 QQQ  567  NMP  H7   HGA2       0.090000        1.0080           0
    9068 QQQ  567  NMP  C5   CG3C52    -0.027000       12.0110           0
    9069 QQQ  567  NMP  H8   HGA2       0.090000        1.0080           0
    9070 QQQ  567  NMP  H9   HGA2       0.090000        1.0080           0
    9071 QQQ  567  NMP  C6   CG2R53     0.286000       12.0110           0
    9072 QQQ  567  NMP  O7   OG2D1     -0.500000       15.9990           0
    9073 QQQ  568  NMP  C1   CG331     -0.161000       12.0110           0
    9074 QQQ  568  NMP  H1   HGA3       0.090000        1.0080           0
    9075 QQQ  568  NMP  H2   HGA3       0.090000        1.0080           0
    9076 QQQ  568  NMP  H3   HGA3       0.090000        1.0080           0
    9077 QQQ  568  NMP  N2   NG2R53    -0.098000       14.0070           0
    9078 QQQ  568  NMP  C3   CG3C52    -0.077000       12.0110           0
    9079 QQQ  568  NMP  H4   HGA2       0.090000        1.0080           0
    9080 QQQ  568  NMP  H5   HGA2       0.090000        1.0080           0
    9081 QQQ  568  NMP  C4   CG3C52    -0.233000       12.0110           0
    9082 QQQ  568  NMP  H6   HGA2       0.090000        1.0080           0
    9083 QQQ  568  NMP  H7   HGA2       0.090000        1.0080           0
    9084 QQQ  568  NMP  C5   CG3C52    -0.027000       12.0110           0
    9085 QQQ  568  NMP  H8   HGA2       0.090000        1.0080           0
    9086 QQQ  568  NMP  H9   HGA2       0.090000        1.0080           0
    9087 QQQ  568  NMP  C6   CG2R53     0.286000       12.0110           0
    9088 QQQ  568  NMP  O7   OG2D1     -0.500000       15.9990           0
    9089 QQQ  569  NMP  C1   CG331     -0.161000       12.0110           0
    9090 QQQ  569  NMP  H1   HGA3       0.090000        1.0080           0
    9091 QQQ  569  NMP  H2   HGA3       0.090000        1.0080           0
    9092 QQQ  569  NMP  H3   HGA3       0.090000        1.0080           0
    9093 QQQ  569  NMP  N2   NG2R53    -0.098000       14.0070           0
    9094 QQQ  569  NMP  C3   CG3C52    -0.077000       12.0110           0
    9095 QQQ  569  NMP  H4   HGA2       0.090000        1.0080           0
    9096 QQQ  569  NMP  H5   HGA2       0.090000        1.0080           0
    9097 QQQ  569  NMP  C4   CG3C52    -0.233000       12.0110           0
    9098 QQQ  569  NMP  H6   HGA2       0.090000        1.0080           0
    9099 QQQ  569  NMP  H7   HGA2       0.090000        1.0080           0
    9100 QQQ  569  NMP  C5   CG3C52    -0.027000       12.0110           0
    9101 QQQ  569  NMP  H8   HGA2       0.090000        1.0080           0
    9102 QQQ  569  NMP  H9   HGA2       0.090000        1.0080           0
    9103 QQQ  569  NMP  C6   CG2R53     0.286000       12.0110           0
    9104 QQQ  569  NMP  O7   OG2D1     -0.500000       15.9990           0
    9105 QQQ  570  NMP  C1   CG331     -0.161000       12.0110           0
    9106 QQQ  570  NMP  H1   HGA3       0.090000        1.0080           0
    9107 QQQ  570  NMP  H2   HGA3       0.090000        1.0080           0
    9108 QQQ  570  NMP  H3   HGA3       0.090000        1.0080           0
    9109 QQQ  570  NMP  N2   NG2R53    -0.098000       14.0070           0
    9110 QQQ  570  NMP  C3   CG3C52    -0.077000       12.0110           0
    9111 QQQ  570  NMP  H4   HGA2       0.090000        1.0080           0
    9112 QQQ  570  NMP  H5   HGA2       0.090000        1.0080           0
    9113 QQQ  570  NMP  C4   CG3C52    -0.233000       12.0110           0
    9114 QQQ  570  NMP  H6   HGA2       0.090000        1.0080           0
    9115 QQQ  570  NMP  H7   HGA2       0.090000        1.0080           0
    9116 QQQ  570  NMP  C5   CG3C52    -0.027000       12.0110           0
    9117 QQQ  570  NMP  H8   HGA2       0.090000        1.0080           0
    9118 QQQ  570  NMP  H9   HGA2       0.090000        1.0080           0
    9119 QQQ  570  NMP  C6   CG2R53     0.286000       12.0110           0
    9120 QQQ  570  NMP  O7   OG2D1     -0.500000       15.9990           0
    9121 QQQ  571  NMP  C1   CG331     -0.161000       12.0110           0
    9122 QQQ  571  NMP  H1   HGA3       0.090000        1.0080           0
    9123 QQQ  571  NMP  H2   HGA3       0.090000        1.0080           0
    9124 QQQ  571  NMP  H3   HGA3       0.090000        1.0080           0
    9125 QQQ  571  NMP  N2   NG2R53    -0.098000       14.0070           0
    9126 QQQ  571  NMP  C3   CG3C52    -0.077000       12.0110           0
    9127 QQQ  571  NMP  H4   HGA2       0.090000        1.0080           0
    9128 QQQ  571  NMP  H5   HGA2       0.090000        1.0080           0
    9129 QQQ  571  NMP  C4   CG3C52    -0.233000       12.0110           0
    9130 QQQ  571  NMP  H6   HGA2       0.090000        1.0080           0
    9131 QQQ  571  NMP  H7   HGA2       0.090000        1.0080           0
    9132 QQQ  571  NMP  C5   CG3C52    -0.027000       12.0110           0
    9133 QQQ  571  NMP  H8   HGA2       0.090000        1.0080           0
    9134 QQQ  571  NMP  H9   HGA2       0.090000        1.0080           0
    9135 QQQ  571  NMP  C6   CG2R53     0.286000       12.0110           0
    9136 QQQ  571  NMP  O7   OG2D1     -0.500000       15.9990           0
    9137 QQQ  572  NMP  C1   CG331     -0.161000       12.0110           0
    9138 QQQ  572  NMP  H1   HGA3       0.090000        1.0080           0
    9139 QQQ  572  NMP  H2   HGA3       0.090000        1.0080           0
    9140 QQQ  572  NMP  H3   HGA3       0.090000        1.0080           0
    9141 QQQ  572  NMP  N2   NG2R53    -0.098000       14.0070           0
    9142 QQQ  572  NMP  C3   CG3C52    -0.077000       12.0110           0
    9143 QQQ  572  NMP  H4   HGA2       0.090000        1.0080           0
    9144 QQQ  572  NMP  H5   HGA2       0.090000        1.0080           0
    9145 QQQ  572  NMP  C4   CG3C52    -0.233000       12.0110           0
    9146 QQQ  572  NMP  H6   HGA2       0.090000        1.0080           0
    9147 QQQ  572  NMP  H7   HGA2       0.090000        1.0080           0
    9148 QQQ  572  NMP  C5   CG3C52    -0.027000       12.0110           0
    9149 QQQ  572  NMP  H8   HGA2       0.090000        1.0080           0
    9150 QQQ  572  NMP  H9   HGA2       0.090000        1.0080           0
    9151 QQQ  572  NMP  C6   CG2R53     0.286000       12.0110           0
    9152 QQQ  572  NMP  O7   OG2D1     -0.500000       15.9990           0
    9153 QQQ  573  NMP  C1   CG331     -0.161000       12.0110           0
    9154 QQQ  573  NMP  H1   HGA3       0.090000        1.0080           0
    9155 QQQ  573  NMP  H2   HGA3       0.090000        1.0080           0
    9156 QQQ  573  NMP  H3   HGA3       0.090000        1.0080           0
    9157 QQQ  573  NMP  N2   NG2R53    -0.098000       14.0070           0
    9158 QQQ  573  NMP  C3   CG3C52    -0.077000       12.0110           0
    9159 QQQ  573  NMP  H4   HGA2       0.090000        1.0080           0
    9160 QQQ  573  NMP  H5   HGA2       0.090000        1.0080           0
    9161 QQQ  573  NMP  C4   CG3C52    -0.233000       12.0110           0
    9162 QQQ  573  NMP  H6   HGA2       0.090000        1.0080           0
    9163 QQQ  573  NMP  H7   HGA2       0.090000        1.0080           0
    9164 QQQ  573  NMP  C5   CG3C52    -0.027000       12.0110           0
    9165 QQQ  573  NMP  H8   HGA2       0.090000        1.0080           0
    9166 QQQ  573  NMP  H9   HGA2       0.090000        1.0080           0
    9167 QQQ  573  NMP  C6   CG2R53     0.286000       12.0110           0
    9168 QQQ  573  NMP  O7   OG2D1     -0.500000       15.9990           0
    9169 QQQ  574  NMP  C1   CG331     -0.161000       12.0110           0
    9170 QQQ  574  NMP  H1   HGA3       0.090000        1.0080           0
    9171 QQQ  574  NMP  H2   HGA3       0.090000        1.0080           0
    9172 QQQ  574  NMP  H3   HGA3       0.090000        1.0080           0
    9173 QQQ  574  NMP  N2   NG2R53    -0.098000       14.0070           0
    9174 QQQ  574  NMP  C3   CG3C52    -0.077000       12.0110           0
    9175 QQQ  574  NMP  H4   HGA2       0.090000        1.0080           0
    9176 QQQ  574  NMP  H5   HGA2       0.090000        1.0080           0
    9177 QQQ  574  NMP  C4   CG3C52    -0.233000       12.0110           0
    9178 QQQ  574  NMP  H6   HGA2       0.090000        1.0080           0
    9179 QQQ  574  NMP  H7   HGA2       0.090000        1.0080           0
    9180 QQQ  574  NMP  C5   CG3C52    -0.027000       12.0110           0
    9181 QQQ  574  NMP  H8   HGA2       0.090000        1.0080           0
    9182 QQQ  574  NMP  H9   HGA2       0.090000        1.0080           0
    9183 QQQ  574  NMP  C6   CG2R53     0.286000       12.0110           0
    9184 QQQ  574  NMP  O7   OG2D1     -0.500000       15.9990           0
    9185 QQQ  575  NMP  C1   CG331     -0.161000       12.0110           0
    9186 QQQ  575  NMP  H1   HGA3       0.090000        1.0080           0
    9187 QQQ  575  NMP  H2   HGA3       0.090000        1.0080           0
    9188 QQQ  575  NMP  H3   HGA3       0.090000        1.0080           0
    9189 QQQ  575  NMP  N2   NG2R53    -0.098000       14.0070           0
    9190 QQQ  575  NMP  C3   CG3C52    -0.077000       12.0110           0
    9191 QQQ  575  NMP  H4   HGA2       0.090000        1.0080           0
    9192 QQQ  575  NMP  H5   HGA2       0.090000        1.0080           0
    9193 QQQ  575  NMP  C4   CG3C52    -0.233000       12.0110           0
    9194 QQQ  575  NMP  H6   HGA2       0.090000        1.0080           0
    9195 QQQ  575  NMP  H7   HGA2       0.090000        1.0080           0
    9196 QQQ  575  NMP  C5   CG3C52    -0.027000       12.0110           0
    9197 QQQ  575  NMP  H8   HGA2       0.090000        1.0080           0
    9198 QQQ  575  NMP  H9   HGA2       0.090000        1.0080           0
    9199 QQQ  575  NMP  C6   CG2R53     0.286000       12.0110           0
    9200 QQQ  575  NMP  O7   OG2D1     -0.500000       15.9990           0
    9201 QQQ  576  NMP  C1   CG331     -0.161000       12.0110           0
    9202 QQQ  576  NMP  H1   HGA3       0.090000        1.0080           0
    9203 QQQ  576  NMP  H2   HGA3       0.090000        1.0080           0
    9204 QQQ  576  NMP  H3   HGA3       0.090000        1.0080           0
    9205 QQQ  576  NMP  N2   NG2R53    -0.098000       14.0070           0
    9206 QQQ  576  NMP  C3   CG3C52    -0.077000       12.0110           0
    9207 QQQ  576  NMP  H4   HGA2       0.090000        1.0080           0
    9208 QQQ  576  NMP  H5   HGA2       0.090000        1.0080           0
    9209 QQQ  576  NMP  C4   CG3C52    -0.233000       12.0110           0
    9210 QQQ  576  NMP  H6   HGA2       0.090000        1.0080           0
    9211 QQQ  576  NMP  H7   HGA2       0.090000        1.0080           0
    9212 QQQ  576  NMP  C5   CG3C52    -0.027000       12.0110           0
    9213 QQQ  576  NMP  H8   HGA2       0.090000        1.0080           0
    9214 QQQ  576  NMP  H9   HGA2       0.090000        1.0080           0
    9215 QQQ  576  NMP  C6   CG2R53     0.286000       12.0110           0
    9216 QQQ  576  NMP  O7   OG2D1     -0.500000       15.9990           0
    9217 QQQ  577  NMP  C1   CG331     -0.161000       12.0110           0
    9218 QQQ  577  NMP  H1   HGA3       0.090000        1.0080           0
    9219 QQQ  577  NMP  H2   HGA3       0.090000        1.0080           0
    9220 QQQ  577  NMP  H3   HGA3       0.090000        1.0080           0
    9221 QQQ  577  NMP  N2   NG2R53    -0.098000       14.0070           0
    9222 QQQ  577  NMP  C3   CG3C52    -0.077000       12.0110           0
    9223 QQQ  577  NMP  H4   HGA2       0.090000        1.0080           0
    9224 QQQ  577  NMP  H5   HGA2       0.090000        1.0080           0
    9225 QQQ  577  NMP  C4   CG3C52    -0.233000       12.0110           0
    9226 QQQ  577  NMP  H6   HGA2       0.090000        1.0080           0
    9227 QQQ  577  NMP  H7   HGA2       0.090000        1.0080           0
    9228 QQQ  577  NMP  C5   CG3C52    -0.027000       12.0110           0
    9229 QQQ  577  NMP  H8   HGA2       0.090000        1.0080           0
    9230 QQQ  577  NMP  H9   HGA2       0.090000        1.0080           0
    9231 QQQ  577  NMP  C6   CG2R53     0.286000       12.0110           0
    9232 QQQ  577  NMP  O7   OG2D1     -0.500000       15.9990           0
    9233 QQQ  578  NMP  C1   CG331     -0.161000       12.0110           0
    9234 QQQ  578  NMP  H1   HGA3       0.090000        1.0080           0
    9235 QQQ  578  NMP  H2   HGA3       0.090000        1.0080           0
    9236 QQQ  578  NMP  H3   HGA3       0.090000        1.0080           0
    9237 QQQ  578  NMP  N2   NG2R53    -0.098000       14.0070           0
    9238 QQQ  578  NMP  C3   CG3C52    -0.077000       12.0110           0
    9239 QQQ  578  NMP  H4   HGA2       0.090000        1.0080           0
    9240 QQQ  578  NMP  H5   HGA2       0.090000        1.0080           0
    9241 QQQ  578  NMP  C4   CG3C52    -0.233000       12.0110           0
    9242 QQQ  578  NMP  H6   HGA2       0.090000        1.0080           0
    9243 QQQ  578  NMP  H7   HGA2       0.090000        1.0080           0
    9244 QQQ  578  NMP  C5   CG3C52    -0.027000       12.0110           0
    9245 QQQ  578  NMP  H8   HGA2       0.090000        1.0080           0
    9246 QQQ  578  NMP  H9   HGA2       0.090000        1.0080           0
    9247 QQQ  578  NMP  C6   CG2R53     0.286000       12.0110           0
    9248 QQQ  578  NMP  O7   OG2D1     -0.500000       15.9990           0
    9249 QQQ  579  NMP  C1   CG331     -0.161000       12.0110           0
    9250 QQQ  579  NMP  H1   HGA3       0.090000        1.0080           0
    9251 QQQ  579  NMP  H2   HGA3       0.090000        1.0080           0
    9252 QQQ  579  NMP  H3   HGA3       0.090000        1.0080           0
    9253 QQQ  579  NMP  N2   NG2R53    -0.098000       14.0070           0
    9254 QQQ  579  NMP  C3   CG3C52    -0.077000       12.0110           0
    9255 QQQ  579  NMP  H4   HGA2       0.090000        1.0080           0
    9256 QQQ  579  NMP  H5   HGA2       0.090000        1.0080           0
    9257 QQQ  579  NMP  C4   CG3C52    -0.233000       12.0110           0
    9258 QQQ  579  NMP  H6   HGA2       0.090000        1.0080           0
    9259 QQQ  579  NMP  H7   HGA2       0.090000        1.0080           0
    9260 QQQ  579  NMP  C5   CG3C52    -0.027000       12.0110           0
    9261 QQQ  579  NMP  H8   HGA2       0.090000        1.0080           0
    9262 QQQ  579  NMP  H9   HGA2       0.090000        1.0080           0
    9263 QQQ  579  NMP  C6   CG2R53     0.286000       12.0110           0
    9264 QQQ  579  NMP  O7   OG2D1     -0.500000       15.9990           0
    9265 QQQ  580  NMP  C1   CG331     -0.161000       12.0110           0
    9266 QQQ  580  NMP  H1   HGA3       0.090000        1.0080           0
    9267 QQQ  580  NMP  H2   HGA3       0.090000        1.0080           0
    9268 QQQ  580  NMP  H3   HGA3       0.090000        1.0080           0
    9269 QQQ  580  NMP  N2   NG2R53    -0.098000       14.0070           0
    9270 QQQ  580  NMP  C3   CG3C52    -0.077000       12.0110           0
    9271 QQQ  580  NMP  H4   HGA2       0.090000        1.0080           0
    9272 QQQ  580  NMP  H5   HGA2       0.090000        1.0080           0
    9273 QQQ  580  NMP  C4   CG3C52    -0.233000       12.0110           0
    9274 QQQ  580  NMP  H6   HGA2       0.090000        1.0080           0
    9275 QQQ  580  NMP  H7   HGA2       0.090000        1.0080           0
    9276 QQQ  580  NMP  C5   CG3C52    -0.027000       12.0110           0
    9277 QQQ  580  NMP  H8   HGA2       0.090000        1.0080           0
    9278 QQQ  580  NMP  H9   HGA2       0.090000        1.0080           0
    9279 QQQ  580  NMP  C6   CG2R53     0.286000       12.0110           0
    9280 QQQ  580  NMP  O7   OG2D1     -0.500000       15.9990           0
    9281 QQQ  581  NMP  C1   CG331     -0.161000       12.0110           0
    9282 QQQ  581  NMP  H1   HGA3       0.090000        1.0080           0
    9283 QQQ  581  NMP  H2   HGA3       0.090000        1.0080           0
    9284 QQQ  581  NMP  H3   HGA3       0.090000        1.0080           0
    9285 QQQ  581  NMP  N2   NG2R53    -0.098000       14.0070           0
    9286 QQQ  581  NMP  C3   CG3C52    -0.077000       12.0110           0
    9287 QQQ  581  NMP  H4   HGA2       0.090000        1.0080           0
    9288 QQQ  581  NMP  H5   HGA2       0.090000        1.0080           0
    9289 QQQ  581  NMP  C4   CG3C52    -0.233000       12.0110           0
    9290 QQQ  581  NMP  H6   HGA2       0.090000        1.0080           0
    9291 QQQ  581  NMP  H7   HGA2       0.090000        1.0080           0
    9292 QQQ  581  NMP  C5   CG3C52    -0.027000       12.0110           0
    9293 QQQ  581  NMP  H8   HGA2       0.090000        1.0080           0
    9294 QQQ  581  NMP  H9   HGA2       0.090000        1.0080           0
    9295 QQQ  581  NMP  C6   CG2R53     0.286000       12.0110           0
    9296 QQQ  581  NMP  O7   OG2D1     -0.500000       15.9990           0
    9297 QQQ  582  NMP  C1   CG331     -0.161000       12.0110           0
    9298 QQQ  582  NMP  H1   HGA3       0.090000        1.0080           0
    9299 QQQ  582  NMP  H2   HGA3       0.090000        1.0080           0
    9300 QQQ  582  NMP  H3   HGA3       0.090000        1.0080           0
    9301 QQQ  582  NMP  N2   NG2R53    -0.098000       14.0070           0
    9302 QQQ  582  NMP  C3   CG3C52    -0.077000       12.0110           0
    9303 QQQ  582  NMP  H4   HGA2       0.090000        1.0080           0
    9304 QQQ  582  NMP  H5   HGA2       0.090000        1.0080           0
    9305 QQQ  582  NMP  C4   CG3C52    -0.233000       12.0110           0
    9306 QQQ  582  NMP  H6   HGA2       0.090000        1.0080           0
    9307 QQQ  582  NMP  H7   HGA2       0.090000        1.0080           0
    9308 QQQ  582  NMP  C5   CG3C52    -0.027000       12.0110           0
    9309 QQQ  582  NMP  H8   HGA2       0.090000        1.0080           0
    9310 QQQ  582  NMP  H9   HGA2       0.090000        1.0080           0
    9311 QQQ  582  NMP  C6   CG2R53     0.286000       12.0110           0
    9312 QQQ  582  NMP  O7   OG2D1     -0.500000       15.9990           0
    9313 QQQ  583  NMP  C1   CG331     -0.161000       12.0110           0
    9314 QQQ  583  NMP  H1   HGA3       0.090000        1.0080           0
    9315 QQQ  583  NMP  H2   HGA3       0.090000        1.0080           0
    9316 QQQ  583  NMP  H3   HGA3       0.090000        1.0080           0
    9317 QQQ  583  NMP  N2   NG2R53    -0.098000       14.0070           0
    9318 QQQ  583  NMP  C3   CG3C52    -0.077000       12.0110           0
    9319 QQQ  583  NMP  H4   HGA2       0.090000        1.0080           0
    9320 QQQ  583  NMP  H5   HGA2       0.090000        1.0080           0
    9321 QQQ  583  NMP  C4   CG3C52    -0.233000       12.0110           0
    9322 QQQ  583  NMP  H6   HGA2       0.090000        1.0080           0
    9323 QQQ  583  NMP  H7   HGA2       0.090000        1.0080           0
    9324 QQQ  583  NMP  C5   CG3C52    -0.027000       12.0110           0
    9325 QQQ  583  NMP  H8   HGA2       0.090000        1.0080           0
    9326 QQQ  583  NMP  H9   HGA2       0.090000        1.0080           0
    9327 QQQ  583  NMP  C6   CG2R53     0.286000       12.0110           0
    9328 QQQ  583  NMP  O7   OG2D1     -0.500000       15.9990           0
    9329 QQQ  584  NMP  C1   CG331     -0.161000       12.0110           0
    9330 QQQ  584  NMP  H1   HGA3       0.090000        1.0080           0
    9331 QQQ  584  NMP  H2   HGA3       0.090000        1.0080           0
    9332 QQQ  584  NMP  H3   HGA3       0.090000        1.0080           0
    9333 QQQ  584  NMP  N2   NG2R53    -0.098000       14.0070           0
    9334 QQQ  584  NMP  C3   CG3C52    -0.077000       12.0110           0
    9335 QQQ  584  NMP  H4   HGA2       0.090000        1.0080           0
    9336 QQQ  584  NMP  H5   HGA2       0.090000        1.0080           0
    9337 QQQ  584  NMP  C4   CG3C52    -0.233000       12.0110           0
    9338 QQQ  584  NMP  H6   HGA2       0.090000        1.0080           0
    9339 QQQ  584  NMP  H7   HGA2       0.090000        1.0080           0
    9340 QQQ  584  NMP  C5   CG3C52    -0.027000       12.0110           0
    9341 QQQ  584  NMP  H8   HGA2       0.090000        1.0080           0
    9342 QQQ  584  NMP  H9   HGA2       0.090000        1.0080           0
    9343 QQQ  584  NMP  C6   CG2R53     0.286000       12.0110           0
    9344 QQQ  584  NMP  O7   OG2D1     -0.500000       15.9990           0
    9345 QQQ  585  NMP  C1   CG331     -0.161000       12.0110           0
    9346 QQQ  585  NMP  H1   HGA3       0.090000        1.0080           0
    9347 QQQ  585  NMP  H2   HGA3       0.090000        1.0080           0
    9348 QQQ  585  NMP  H3   HGA3       0.090000        1.0080           0
    9349 QQQ  585  NMP  N2   NG2R53    -0.098000       14.0070           0
    9350 QQQ  585  NMP  C3   CG3C52    -0.077000       12.0110           0
    9351 QQQ  585  NMP  H4   HGA2       0.090000        1.0080           0
    9352 QQQ  585  NMP  H5   HGA2       0.090000        1.0080           0
    9353 QQQ  585  NMP  C4   CG3C52    -0.233000       12.0110           0
    9354 QQQ  585  NMP  H6   HGA2       0.090000        1.0080           0
    9355 QQQ  585  NMP  H7   HGA2       0.090000        1.0080           0
    9356 QQQ  585  NMP  C5   CG3C52    -0.027000       12.0110           0
    9357 QQQ  585  NMP  H8   HGA2       0.090000        1.0080           0
    9358 QQQ  585  NMP  H9   HGA2       0.090000        1.0080           0
    9359 QQQ  585  NMP  C6   CG2R53     0.286000       12.0110           0
    9360 QQQ  585  NMP  O7   OG2D1     -0.500000       15.9990           0
    9361 QQQ  586  NMP  C1   CG331     -0.161000       12.0110           0
    9362 QQQ  586  NMP  H1   HGA3       0.090000        1.0080           0
    9363 QQQ  586  NMP  H2   HGA3       0.090000        1.0080           0
    9364 QQQ  586  NMP  H3   HGA3       0.090000        1.0080           0
    9365 QQQ  586  NMP  N2   NG2R53    -0.098000       14.0070           0
    9366 QQQ  586  NMP  C3   CG3C52    -0.077000       12.0110           0
    9367 QQQ  586  NMP  H4   HGA2       0.090000        1.0080           0
    9368 QQQ  586  NMP  H5   HGA2       0.090000        1.0080           0
    9369 QQQ  586  NMP  C4   CG3C52    -0.233000       12.0110           0
    9370 QQQ  586  NMP  H6   HGA2       0.090000        1.0080           0
    9371 QQQ  586  NMP  H7   HGA2       0.090000        1.0080           0
    9372 QQQ  586  NMP  C5   CG3C52    -0.027000       12.0110           0
    9373 QQQ  586  NMP  H8   HGA2       0.090000        1.0080           0
    9374 QQQ  586  NMP  H9   HGA2       0.090000        1.0080           0
    9375 QQQ  586  NMP  C6   CG2R53     0.286000       12.0110           0
    9376 QQQ  586  NMP  O7   OG2D1     -0.500000       15.9990           0
    9377 QQQ  587  NMP  C1   CG331     -0.161000       12.0110           0
    9378 QQQ  587  NMP  H1   HGA3       0.090000        1.0080           0
    9379 QQQ  587  NMP  H2   HGA3       0.090000        1.0080           0
    9380 QQQ  587  NMP  H3   HGA3       0.090000        1.0080           0
    9381 QQQ  587  NMP  N2   NG2R53    -0.098000       14.0070           0
    9382 QQQ  587  NMP  C3   CG3C52    -0.077000       12.0110           0
    9383 QQQ  587  NMP  H4   HGA2       0.090000        1.0080           0
    9384 QQQ  587  NMP  H5   HGA2       0.090000        1.0080           0
    9385 QQQ  587  NMP  C4   CG3C52    -0.233000       12.0110           0
    9386 QQQ  587  NMP  H6   HGA2       0.090000        1.0080           0
    9387 QQQ  587  NMP  H7   HGA2       0.090000        1.0080           0
    9388 QQQ  587  NMP  C5   CG3C52    -0.027000       12.0110           0
    9389 QQQ  587  NMP  H8   HGA2       0.090000        1.0080           0
    9390 QQQ  587  NMP  H9   HGA2       0.090000        1.0080           0
    9391 QQQ  587  NMP  C6   CG2R53     0.286000       12.0110           0
    9392 QQQ  587  NMP  O7   OG2D1     -0.500000       15.9990           0
    9393 QQQ  588  NMP  C1   CG331     -0.161000       12.0110           0
    9394 QQQ  588  NMP  H1   HGA3       0.090000        1.0080           0
    9395 QQQ  588  NMP  H2   HGA3       0.090000        1.0080           0
    9396 QQQ  588  NMP  H3   HGA3       0.090000        1.0080           0
    9397 QQQ  588  NMP  N2   NG2R53    -0.098000       14.0070           0
    9398 QQQ  588  NMP  C3   CG3C52    -0.077000       12.0110           0
    9399 QQQ  588  NMP  H4   HGA2       0.090000        1.0080           0
    9400 QQQ  588  NMP  H5   HGA2       0.090000        1.0080           0
    9401 QQQ  588  NMP  C4   CG3C52    -0.233000       12.0110           0
    9402 QQQ  588  NMP  H6   HGA2       0.090000        1.0080           0
    9403 QQQ  588  NMP  H7   HGA2       0.090000        1.0080           0
    9404 QQQ  588  NMP  C5   CG3C52    -0.027000       12.0110           0
    9405 QQQ  588  NMP  H8   HGA2       0.090000        1.0080           0
    9406 QQQ  588  NMP  H9   HGA2       0.090000        1.0080           0
    9407 QQQ  588  NMP  C6   CG2R53     0.286000       12.0110           0
    9408 QQQ  588  NMP  O7   OG2D1     -0.500000       15.9990           0
    9409 QQQ  589  NMP  C1   CG331     -0.161000       12.0110           0
    9410 QQQ  589  NMP  H1   HGA3       0.090000        1.0080           0
    9411 QQQ  589  NMP  H2   HGA3       0.090000        1.0080           0
    9412 QQQ  589  NMP  H3   HGA3       0.090000        1.0080           0
    9413 QQQ  589  NMP  N2   NG2R53    -0.098000       14.0070           0
    9414 QQQ  589  NMP  C3   CG3C52    -0.077000       12.0110           0
    9415 QQQ  589  NMP  H4   HGA2       0.090000        1.0080           0
    9416 QQQ  589  NMP  H5   HGA2       0.090000        1.0080           0
    9417 QQQ  589  NMP  C4   CG3C52    -0.233000       12.0110           0
    9418 QQQ  589  NMP  H6   HGA2       0.090000        1.0080           0
    9419 QQQ  589  NMP  H7   HGA2       0.090000        1.0080           0
    9420 QQQ  589  NMP  C5   CG3C52    -0.027000       12.0110           0
    9421 QQQ  589  NMP  H8   HGA2       0.090000        1.0080           0
    9422 QQQ  589  NMP  H9   HGA2       0.090000        1.0080           0
    9423 QQQ  589  NMP  C6   CG2R53     0.286000       12.0110           0
    9424 QQQ  589  NMP  O7   OG2D1     -0.500000       15.9990           0
    9425 QQQ  590  NMP  C1   CG331     -0.161000       12.0110           0
    9426 QQQ  590  NMP  H1   HGA3       0.090000        1.0080           0
    9427 QQQ  590  NMP  H2   HGA3       0.090000        1.0080           0
    9428 QQQ  590  NMP  H3   HGA3       0.090000        1.0080           0
    9429 QQQ  590  NMP  N2   NG2R53    -0.098000       14.0070           0
    9430 QQQ  590  NMP  C3   CG3C52    -0.077000       12.0110           0
    9431 QQQ  590  NMP  H4   HGA2       0.090000        1.0080           0
    9432 QQQ  590  NMP  H5   HGA2       0.090000        1.0080           0
    9433 QQQ  590  NMP  C4   CG3C52    -0.233000       12.0110           0
    9434 QQQ  590  NMP  H6   HGA2       0.090000        1.0080           0
    9435 QQQ  590  NMP  H7   HGA2       0.090000        1.0080           0
    9436 QQQ  590  NMP  C5   CG3C52    -0.027000       12.0110           0
    9437 QQQ  590  NMP  H8   HGA2       0.090000        1.0080           0
    9438 QQQ  590  NMP  H9   HGA2       0.090000        1.0080           0
    9439 QQQ  590  NMP  C6   CG2R53     0.286000       12.0110           0
    9440 QQQ  590  NMP  O7   OG2D1     -0.500000       15.9990           0
    9441 QQQ  591  NMP  C1   CG331     -0.161000       12.0110           0
    9442 QQQ  591  NMP  H1   HGA3       0.090000        1.0080           0
    9443 QQQ  591  NMP  H2   HGA3       0.090000        1.0080           0
    9444 QQQ  591  NMP  H3   HGA3       0.090000        1.0080           0
    9445 QQQ  591  NMP  N2   NG2R53    -0.098000       14.0070           0
    9446 QQQ  591  NMP  C3   CG3C52    -0.077000       12.0110           0
    9447 QQQ  591  NMP  H4   HGA2       0.090000        1.0080           0
    9448 QQQ  591  NMP  H5   HGA2       0.090000        1.0080           0
    9449 QQQ  591  NMP  C4   CG3C52    -0.233000       12.0110           0
    9450 QQQ  591  NMP  H6   HGA2       0.090000        1.0080           0
    9451 QQQ  591  NMP  H7   HGA2       0.090000        1.0080           0
    9452 QQQ  591  NMP  C5   CG3C52    -0.027000       12.0110           0
    9453 QQQ  591  NMP  H8   HGA2       0.090000        1.0080           0
    9454 QQQ  591  NMP  H9   HGA2       0.090000        1.0080           0
    9455 QQQ  591  NMP  C6   CG2R53     0.286000       12.0110           0
    9456 QQQ  591  NMP  O7   OG2D1     -0.500000       15.9990           0
    9457 QQQ  592  NMP  C1   CG331     -0.161000       12.0110           0
    9458 QQQ  592  NMP  H1   HGA3       0.090000        1.0080           0
    9459 QQQ  592  NMP  H2   HGA3       0.090000        1.0080           0
    9460 QQQ  592  NMP  H3   HGA3       0.090000        1.0080           0
    9461 QQQ  592  NMP  N2   NG2R53    -0.098000       14.0070           0
    9462 QQQ  592  NMP  C3   CG3C52    -0.077000       12.0110           0
    9463 QQQ  592  NMP  H4   HGA2       0.090000        1.0080           0
    9464 QQQ  592  NMP  H5   HGA2       0.090000        1.0080           0
    9465 QQQ  592  NMP  C4   CG3C52    -0.233000       12.0110           0
    9466 QQQ  592  NMP  H6   HGA2       0.090000        1.0080           0
    9467 QQQ  592  NMP  H7   HGA2       0.090000        1.0080           0
    9468 QQQ  592  NMP  C5   CG3C52    -0.027000       12.0110           0
    9469 QQQ  592  NMP  H8   HGA2       0.090000        1.0080           0
    9470 QQQ  592  NMP  H9   HGA2       0.090000        1.0080           0
    9471 QQQ  592  NMP  C6   CG2R53     0.286000       12.0110           0
    9472 QQQ  592  NMP  O7   OG2D1     -0.500000       15.9990           0
    9473 QQQ  593  NMP  C1   CG331     -0.161000       12.0110           0
    9474 QQQ  593  NMP  H1   HGA3       0.090000        1.0080           0
    9475 QQQ  593  NMP  H2   HGA3       0.090000        1.0080           0
    9476 QQQ  593  NMP  H3   HGA3       0.090000        1.0080           0
    9477 QQQ  593  NMP  N2   NG2R53    -0.098000       14.0070           0
    9478 QQQ  593  NMP  C3   CG3C52    -0.077000       12.0110           0
    9479 QQQ  593  NMP  H4   HGA2       0.090000        1.0080           0
    9480 QQQ  593  NMP  H5   HGA2       0.090000        1.0080           0
    9481 QQQ  593  NMP  C4   CG3C52    -0.233000       12.0110           0
    9482 QQQ  593  NMP  H6   HGA2       0.090000        1.0080           0
    9483 QQQ  593  NMP  H7   HGA2       0.090000        1.0080           0
    9484 QQQ  593  NMP  C5   CG3C52    -0.027000       12.0110           0
    9485 QQQ  593  NMP  H8   HGA2       0.090000        1.0080           0
    9486 QQQ  593  NMP  H9   HGA2       0.090000        1.0080           0
    9487 QQQ  593  NMP  C6   CG2R53     0.286000       12.0110           0
    9488 QQQ  593  NMP  O7   OG2D1     -0.500000       15.9990           0
    9489 QQQ  594  NMP  C1   CG331     -0.161000       12.0110           0
    9490 QQQ  594  NMP  H1   HGA3       0.090000        1.0080           0
    9491 QQQ  594  NMP  H2   HGA3       0.090000        1.0080           0
    9492 QQQ  594  NMP  H3   HGA3       0.090000        1.0080           0
    9493 QQQ  594  NMP  N2   NG2R53    -0.098000       14.0070           0
    9494 QQQ  594  NMP  C3   CG3C52    -0.077000       12.0110           0
    9495 QQQ  594  NMP  H4   HGA2       0.090000        1.0080           0
    9496 QQQ  594  NMP  H5   HGA2       0.090000        1.0080           0
    9497 QQQ  594  NMP  C4   CG3C52    -0.233000       12.0110           0
    9498 QQQ  594  NMP  H6   HGA2       0.090000        1.0080           0
    9499 QQQ  594  NMP  H7   HGA2       0.090000        1.0080           0
    9500 QQQ  594  NMP  C5   CG3C52    -0.027000       12.0110           0
    9501 QQQ  594  NMP  H8   HGA2       0.090000        1.0080           0
    9502 QQQ  594  NMP  H9   HGA2       0.090000        1.0080           0
    9503 QQQ  594  NMP  C6   CG2R53     0.286000       12.0110           0
    9504 QQQ  594  NMP  O7   OG2D1     -0.500000       15.9990           0
    9505 QQQ  595  NMP  C1   CG331     -0.161000       12.0110           0
    9506 QQQ  595  NMP  H1   HGA3       0.090000        1.0080           0
    9507 QQQ  595  NMP  H2   HGA3       0.090000        1.0080           0
    9508 QQQ  595  NMP  H3   HGA3       0.090000        1.0080           0
    9509 QQQ  595  NMP  N2   NG2R53    -0.098000       14.0070           0
    9510 QQQ  595  NMP  C3   CG3C52    -0.077000       12.0110           0
    9511 QQQ  595  NMP  H4   HGA2       0.090000        1.0080           0
    9512 QQQ  595  NMP  H5   HGA2       0.090000        1.0080           0
    9513 QQQ  595  NMP  C4   CG3C52    -0.233000       12.0110           0
    9514 QQQ  595  NMP  H6   HGA2       0.090000        1.0080           0
    9515 QQQ  595  NMP  H7   HGA2       0.090000        1.0080           0
    9516 QQQ  595  NMP  C5   CG3C52    -0.027000       12.0110           0
    9517 QQQ  595  NMP  H8   HGA2       0.090000        1.0080           0
    9518 QQQ  595  NMP  H9   HGA2       0.090000        1.0080           0
    9519 QQQ  595  NMP  C6   CG2R53     0.286000       12.0110           0
    9520 QQQ  595  NMP  O7   OG2D1     -0.500000       15.9990           0
    9521 QQQ  596  NMP  C1   CG331     -0.161000       12.0110           0
    9522 QQQ  596  NMP  H1   HGA3       0.090000        1.0080           0
    9523 QQQ  596  NMP  H2   HGA3       0.090000        1.0080           0
    9524 QQQ  596  NMP  H3   HGA3       0.090000        1.0080           0
    9525 QQQ  596  NMP  N2   NG2R53    -0.098000       14.0070           0
    9526 QQQ  596  NMP  C3   CG3C52    -0.077000       12.0110           0
    9527 QQQ  596  NMP  H4   HGA2       0.090000        1.0080           0
    9528 QQQ  596  NMP  H5   HGA2       0.090000        1.0080           0
    9529 QQQ  596  NMP  C4   CG3C52    -0.233000       12.0110           0
    9530 QQQ  596  NMP  H6   HGA2       0.090000        1.0080           0
    9531 QQQ  596  NMP  H7   HGA2       0.090000        1.0080           0
    9532 QQQ  596  NMP  C5   CG3C52    -0.027000       12.0110           0
    9533 QQQ  596  NMP  H8   HGA2       0.090000        1.0080           0
    9534 QQQ  596  NMP  H9   HGA2       0.090000        1.0080           0
    9535 QQQ  596  NMP  C6   CG2R53     0.286000       12.0110           0
    9536 QQQ  596  NMP  O7   OG2D1     -0.500000       15.9990           0
    9537 QQQ  597  NMP  C1   CG331     -0.161000       12.0110           0
    9538 QQQ  597  NMP  H1   HGA3       0.090000        1.0080           0
    9539 QQQ  597  NMP  H2   HGA3       0.090000        1.0080           0
    9540 QQQ  597  NMP  H3   HGA3       0.090000        1.0080           0
    9541 QQQ  597  NMP  N2   NG2R53    -0.098000       14.0070           0
    9542 QQQ  597  NMP  C3   CG3C52    -0.077000       12.0110           0
    9543 QQQ  597  NMP  H4   HGA2       0.090000        1.0080           0
    9544 QQQ  597  NMP  H5   HGA2       0.090000        1.0080           0
    9545 QQQ  597  NMP  C4   CG3C52    -0.233000       12.0110           0
    9546 QQQ  597  NMP  H6   HGA2       0.090000        1.0080           0
    9547 QQQ  597  NMP  H7   HGA2       0.090000        1.0080           0
    9548 QQQ  597  NMP  C5   CG3C52    -0.027000       12.0110           0
    9549 QQQ  597  NMP  H8   HGA2       0.090000        1.0080           0
    9550 QQQ  597  NMP  H9   HGA2       0.090000        1.0080           0
    9551 QQQ  597  NMP  C6   CG2R53     0.286000       12.0110           0
    9552 QQQ  597  NMP  O7   OG2D1     -0.500000       15.9990           0
    9553 QQQ  598  NMP  C1   CG331     -0.161000       12.0110           0
    9554 QQQ  598  NMP  H1   HGA3       0.090000        1.0080           0
    9555 QQQ  598  NMP  H2   HGA3       0.090000        1.0080           0
    9556 QQQ  598  NMP  H3   HGA3       0.090000        1.0080           0
    9557 QQQ  598  NMP  N2   NG2R53    -0.098000       14.0070           0
    9558 QQQ  598  NMP  C3   CG3C52    -0.077000       12.0110           0
    9559 QQQ  598  NMP  H4   HGA2       0.090000        1.0080           0
    9560 QQQ  598  NMP  H5   HGA2       0.090000        1.0080           0
    9561 QQQ  598  NMP  C4   CG3C52    -0.233000       12.0110           0
    9562 QQQ  598  NMP  H6   HGA2       0.090000        1.0080           0
    9563 QQQ  598  NMP  H7   HGA2       0.090000        1.0080           0
    9564 QQQ  598  NMP  C5   CG3C52    -0.027000       12.0110           0
    9565 QQQ  598  NMP  H8   HGA2       0.090000        1.0080           0
    9566 QQQ  598  NMP  H9   HGA2       0.090000        1.0080           0
    9567 QQQ  598  NMP  C6   CG2R53     0.286000       12.0110           0
    9568 QQQ  598  NMP  O7   OG2D1     -0.500000       15.9990           0
    9569 QQQ  599  NMP  C1   CG331     -0.161000       12.0110           0
    9570 QQQ  599  NMP  H1   HGA3       0.090000        1.0080           0
    9571 QQQ  599  NMP  H2   HGA3       0.090000        1.0080           0
    9572 QQQ  599  NMP  H3   HGA3       0.090000        1.0080           0
    9573 QQQ  599  NMP  N2   NG2R53    -0.098000       14.0070           0
    9574 QQQ  599  NMP  C3   CG3C52    -0.077000       12.0110           0
    9575 QQQ  599  NMP  H4   HGA2       0.090000        1.0080           0
    9576 QQQ  599  NMP  H5   HGA2       0.090000        1.0080           0
    9577 QQQ  599  NMP  C4   CG3C52    -0.233000       12.0110           0
    9578 QQQ  599  NMP  H6   HGA2       0.090000        1.0080           0
    9579 QQQ  599  NMP  H7   HGA2       0.090000        1.0080           0
    9580 QQQ  599  NMP  C5   CG3C52    -0.027000       12.0110           0
    9581 QQQ  599  NMP  H8   HGA2       0.090000        1.0080           0
    9582 QQQ  599  NMP  H9   HGA2       0.090000        1.0080           0
    9583 QQQ  599  NMP  C6   CG2R53     0.286000       12.0110           0
    9584 QQQ  599  NMP  O7   OG2D1     -0.500000       15.9990           0
    9585 QQQ  600  NMP  C1   CG331     -0.161000       12.0110           0
    9586 QQQ  600  NMP  H1   HGA3       0.090000        1.0080           0
    9587 QQQ  600  NMP  H2   HGA3       0.090000        1.0080           0
    9588 QQQ  600  NMP  H3   HGA3       0.090000        1.0080           0
    9589 QQQ  600  NMP  N2   NG2R53    -0.098000       14.0070           0
    9590 QQQ  600  NMP  C3   CG3C52    -0.077000       12.0110           0
    9591 QQQ  600  NMP  H4   HGA2       0.090000        1.0080           0
    9592 QQQ  600  NMP  H5   HGA2       0.090000        1.0080           0
    9593 QQQ  600  NMP  C4   CG3C52    -0.233000       12.0110           0
    9594 QQQ  600  NMP  H6   HGA2       0.090000        1.0080           0
    9595 QQQ  600  NMP  H7   HGA2       0.090000        1.0080           0
    9596 QQQ  600  NMP  C5   CG3C52    -0.027000       12.0110           0
    9597 QQQ  600  NMP  H8   HGA2       0.090000        1.0080           0
    9598 QQQ  600  NMP  H9   HGA2       0.090000        1.0080           0
    9599 QQQ  600  NMP  C6   CG2R53     0.286000       12.0110           0
    9600 QQQ  600  NMP  O7   OG2D1     -0.500000       15.9990           0
    9601 QQQ  601  NMP  C1   CG331     -0.161000       12.0110           0
    9602 QQQ  601  NMP  H1   HGA3       0.090000        1.0080           0
    9603 QQQ  601  NMP  H2   HGA3       0.090000        1.0080           0
    9604 QQQ  601  NMP  H3   HGA3       0.090000        1.0080           0
    9605 QQQ  601  NMP  N2   NG2R53    -0.098000       14.0070           0
    9606 QQQ  601  NMP  C3   CG3C52    -0.077000       12.0110           0
    9607 QQQ  601  NMP  H4   HGA2       0.090000        1.0080           0
    9608 QQQ  601  NMP  H5   HGA2       0.090000        1.0080           0
    9609 QQQ  601  NMP  C4   CG3C52    -0.233000       12.0110           0
    9610 QQQ  601  NMP  H6   HGA2       0.090000        1.0080           0
    9611 QQQ  601  NMP  H7   HGA2       0.090000        1.0080           0
    9612 QQQ  601  NMP  C5   CG3C52    -0.027000       12.0110           0
    9613 QQQ  601  NMP  H8   HGA2       0.090000        1.0080           0
    9614 QQQ  601  NMP  H9   HGA2       0.090000        1.0080           0
    9615 QQQ  601  NMP  C6   CG2R53     0.286000       12.0110           0
    9616 QQQ  601  NMP  O7   OG2D1     -0.500000       15.9990           0
    9617 QQQ  602  NMP  C1   CG331     -0.161000       12.0110           0
    9618 QQQ  602  NMP  H1   HGA3       0.090000        1.0080           0
    9619 QQQ  602  NMP  H2   HGA3       0.090000        1.0080           0
    9620 QQQ  602  NMP  H3   HGA3       0.090000        1.0080           0
    9621 QQQ  602  NMP  N2   NG2R53    -0.098000       14.0070           0
    9622 QQQ  602  NMP  C3   CG3C52    -0.077000       12.0110           0
    9623 QQQ  602  NMP  H4   HGA2       0.090000        1.0080           0
    9624 QQQ  602  NMP  H5   HGA2       0.090000        1.0080           0
    9625 QQQ  602  NMP  C4   CG3C52    -0.233000       12.0110           0
    9626 QQQ  602  NMP  H6   HGA2       0.090000        1.0080           0
    9627 QQQ  602  NMP  H7   HGA2       0.090000        1.0080           0
    9628 QQQ  602  NMP  C5   CG3C52    -0.027000       12.0110           0
    9629 QQQ  602  NMP  H8   HGA2       0.090000        1.0080           0
    9630 QQQ  602  NMP  H9   HGA2       0.090000        1.0080           0
    9631 QQQ  602  NMP  C6   CG2R53     0.286000       12.0110           0
    9632 QQQ  602  NMP  O7   OG2D1     -0.500000       15.9990           0
    9633 QQQ  603  NMP  C1   CG331     -0.161000       12.0110           0
    9634 QQQ  603  NMP  H1   HGA3       0.090000        1.0080           0
    9635 QQQ  603  NMP  H2   HGA3       0.090000        1.0080           0
    9636 QQQ  603  NMP  H3   HGA3       0.090000        1.0080           0
    9637 QQQ  603  NMP  N2   NG2R53    -0.098000       14.0070           0
    9638 QQQ  603  NMP  C3   CG3C52    -0.077000       12.0110           0
    9639 QQQ  603  NMP  H4   HGA2       0.090000        1.0080           0
    9640 QQQ  603  NMP  H5   HGA2       0.090000        1.0080           0
    9641 QQQ  603  NMP  C4   CG3C52    -0.233000       12.0110           0
    9642 QQQ  603  NMP  H6   HGA2       0.090000        1.0080           0
    9643 QQQ  603  NMP  H7   HGA2       0.090000        1.0080           0
    9644 QQQ  603  NMP  C5   CG3C52    -0.027000       12.0110           0
    9645 QQQ  603  NMP  H8   HGA2       0.090000        1.0080           0
    9646 QQQ  603  NMP  H9   HGA2       0.090000        1.0080           0
    9647 QQQ  603  NMP  C6   CG2R53     0.286000       12.0110           0
    9648 QQQ  603  NMP  O7   OG2D1     -0.500000       15.9990           0
    9649 QQQ  604  NMP  C1   CG331     -0.161000       12.0110           0
    9650 QQQ  604  NMP  H1   HGA3       0.090000        1.0080           0
    9651 QQQ  604  NMP  H2   HGA3       0.090000        1.0080           0
    9652 QQQ  604  NMP  H3   HGA3       0.090000        1.0080           0
    9653 QQQ  604  NMP  N2   NG2R53    -0.098000       14.0070           0
    9654 QQQ  604  NMP  C3   CG3C52    -0.077000       12.0110           0
    9655 QQQ  604  NMP  H4   HGA2       0.090000        1.0080           0
    9656 QQQ  604  NMP  H5   HGA2       0.090000        1.0080           0
    9657 QQQ  604  NMP  C4   CG3C52    -0.233000       12.0110           0
    9658 QQQ  604  NMP  H6   HGA2       0.090000        1.0080           0
    9659 QQQ  604  NMP  H7   HGA2       0.090000        1.0080           0
    9660 QQQ  604  NMP  C5   CG3C52    -0.027000       12.0110           0
    9661 QQQ  604  NMP  H8   HGA2       0.090000        1.0080           0
    9662 QQQ  604  NMP  H9   HGA2       0.090000        1.0080           0
    9663 QQQ  604  NMP  C6   CG2R53     0.286000       12.0110           0
    9664 QQQ  604  NMP  O7   OG2D1     -0.500000       15.9990           0
    9665 QQQ  605  NMP  C1   CG331     -0.161000       12.0110           0
    9666 QQQ  605  NMP  H1   HGA3       0.090000        1.0080           0
    9667 QQQ  605  NMP  H2   HGA3       0.090000        1.0080           0
    9668 QQQ  605  NMP  H3   HGA3       0.090000        1.0080           0
    9669 QQQ  605  NMP  N2   NG2R53    -0.098000       14.0070           0
    9670 QQQ  605  NMP  C3   CG3C52    -0.077000       12.0110           0
    9671 QQQ  605  NMP  H4   HGA2       0.090000        1.0080           0
    9672 QQQ  605  NMP  H5   HGA2       0.090000        1.0080           0
    9673 QQQ  605  NMP  C4   CG3C52    -0.233000       12.0110           0
    9674 QQQ  605  NMP  H6   HGA2       0.090000        1.0080           0
    9675 QQQ  605  NMP  H7   HGA2       0.090000        1.0080           0
    9676 QQQ  605  NMP  C5   CG3C52    -0.027000       12.0110           0
    9677 QQQ  605  NMP  H8   HGA2       0.090000        1.0080           0
    9678 QQQ  605  NMP  H9   HGA2       0.090000        1.0080           0
    9679 QQQ  605  NMP  C6   CG2R53     0.286000       12.0110           0
    9680 QQQ  605  NMP  O7   OG2D1     -0.500000       15.9990           0
    9681 QQQ  606  NMP  C1   CG331     -0.161000       12.0110           0
    9682 QQQ  606  NMP  H1   HGA3       0.090000        1.0080           0
    9683 QQQ  606  NMP  H2   HGA3       0.090000        1.0080           0
    9684 QQQ  606  NMP  H3   HGA3       0.090000        1.0080           0
    9685 QQQ  606  NMP  N2   NG2R53    -0.098000       14.0070           0
    9686 QQQ  606  NMP  C3   CG3C52    -0.077000       12.0110           0
    9687 QQQ  606  NMP  H4   HGA2       0.090000        1.0080           0
    9688 QQQ  606  NMP  H5   HGA2       0.090000        1.0080           0
    9689 QQQ  606  NMP  C4   CG3C52    -0.233000       12.0110           0
    9690 QQQ  606  NMP  H6   HGA2       0.090000        1.0080           0
    9691 QQQ  606  NMP  H7   HGA2       0.090000        1.0080           0
    9692 QQQ  606  NMP  C5   CG3C52    -0.027000       12.0110           0
    9693 QQQ  606  NMP  H8   HGA2       0.090000        1.0080           0
    9694 QQQ  606  NMP  H9   HGA2       0.090000        1.0080           0
    9695 QQQ  606  NMP  C6   CG2R53     0.286000       12.0110           0
    9696 QQQ  606  NMP  O7   OG2D1     -0.500000       15.9990           0
    9697 QQQ  607  NMP  C1   CG331     -0.161000       12.0110           0
    9698 QQQ  607  NMP  H1   HGA3       0.090000        1.0080           0
    9699 QQQ  607  NMP  H2   HGA3       0.090000        1.0080           0
    9700 QQQ  607  NMP  H3   HGA3       0.090000        1.0080           0
    9701 QQQ  607  NMP  N2   NG2R53    -0.098000       14.0070           0
    9702 QQQ  607  NMP  C3   CG3C52    -0.077000       12.0110           0
    9703 QQQ  607  NMP  H4   HGA2       0.090000        1.0080           0
    9704 QQQ  607  NMP  H5   HGA2       0.090000        1.0080           0
    9705 QQQ  607  NMP  C4   CG3C52    -0.233000       12.0110           0
    9706 QQQ  607  NMP  H6   HGA2       0.090000        1.0080           0
    9707 QQQ  607  NMP  H7   HGA2       0.090000        1.0080           0
    9708 QQQ  607  NMP  C5   CG3C52    -0.027000       12.0110           0
    9709 QQQ  607  NMP  H8   HGA2       0.090000        1.0080           0
    9710 QQQ  607  NMP  H9   HGA2       0.090000        1.0080           0
    9711 QQQ  607  NMP  C6   CG2R53     0.286000       12.0110           0
    9712 QQQ  607  NMP  O7   OG2D1     -0.500000       15.9990           0
    9713 QQQ  608  NMP  C1   CG331     -0.161000       12.0110           0
    9714 QQQ  608  NMP  H1   HGA3       0.090000        1.0080           0
    9715 QQQ  608  NMP  H2   HGA3       0.090000        1.0080           0
    9716 QQQ  608  NMP  H3   HGA3       0.090000        1.0080           0
    9717 QQQ  608  NMP  N2   NG2R53    -0.098000       14.0070           0
    9718 QQQ  608  NMP  C3   CG3C52    -0.077000       12.0110           0
    9719 QQQ  608  NMP  H4   HGA2       0.090000        1.0080           0
    9720 QQQ  608  NMP  H5   HGA2       0.090000        1.0080           0
    9721 QQQ  608  NMP  C4   CG3C52    -0.233000       12.0110           0
    9722 QQQ  608  NMP  H6   HGA2       0.090000        1.0080           0
    9723 QQQ  608  NMP  H7   HGA2       0.090000        1.0080           0
    9724 QQQ  608  NMP  C5   CG3C52    -0.027000       12.0110           0
    9725 QQQ  608  NMP  H8   HGA2       0.090000        1.0080           0
    9726 QQQ  608  NMP  H9   HGA2       0.090000        1.0080           0
    9727 QQQ  608  NMP  C6   CG2R53     0.286000       12.0110           0
    9728 QQQ  608  NMP  O7   OG2D1     -0.500000       15.9990           0
    9729 QQQ  609  NMP  C1   CG331     -0.161000       12.0110           0
    9730 QQQ  609  NMP  H1   HGA3       0.090000        1.0080           0
    9731 QQQ  609  NMP  H2   HGA3       0.090000        1.0080           0
    9732 QQQ  609  NMP  H3   HGA3       0.090000        1.0080           0
    9733 QQQ  609  NMP  N2   NG2R53    -0.098000       14.0070           0
    9734 QQQ  609  NMP  C3   CG3C52    -0.077000       12.0110           0
    9735 QQQ  609  NMP  H4   HGA2       0.090000        1.0080           0
    9736 QQQ  609  NMP  H5   HGA2       0.090000        1.0080           0
    9737 QQQ  609  NMP  C4   CG3C52    -0.233000       12.0110           0
    9738 QQQ  609  NMP  H6   HGA2       0.090000        1.0080           0
    9739 QQQ  609  NMP  H7   HGA2       0.090000        1.0080           0
    9740 QQQ  609  NMP  C5   CG3C52    -0.027000       12.0110           0
    9741 QQQ  609  NMP  H8   HGA2       0.090000        1.0080           0
    9742 QQQ  609  NMP  H9   HGA2       0.090000        1.0080           0
    9743 QQQ  609  NMP  C6   CG2R53     0.286000       12.0110           0
    9744 QQQ  609  NMP  O7   OG2D1     -0.500000       15.9990           0
    9745 QQQ  610  NMP  C1   CG331     -0.161000       12.0110           0
    9746 QQQ  610  NMP  H1   HGA3       0.090000        1.0080           0
    9747 QQQ  610  NMP  H2   HGA3       0.090000        1.0080           0
    9748 QQQ  610  NMP  H3   HGA3       0.090000        1.0080           0
    9749 QQQ  610  NMP  N2   NG2R53    -0.098000       14.0070           0
    9750 QQQ  610  NMP  C3   CG3C52    -0.077000       12.0110           0
    9751 QQQ  610  NMP  H4   HGA2       0.090000        1.0080           0
    9752 QQQ  610  NMP  H5   HGA2       0.090000        1.0080           0
    9753 QQQ  610  NMP  C4   CG3C52    -0.233000       12.0110           0
    9754 QQQ  610  NMP  H6   HGA2       0.090000        1.0080           0
    9755 QQQ  610  NMP  H7   HGA2       0.090000        1.0080           0
    9756 QQQ  610  NMP  C5   CG3C52    -0.027000       12.0110           0
    9757 QQQ  610  NMP  H8   HGA2       0.090000        1.0080           0
    9758 QQQ  610  NMP  H9   HGA2       0.090000        1.0080           0
    9759 QQQ  610  NMP  C6   CG2R53     0.286000       12.0110           0
    9760 QQQ  610  NMP  O7   OG2D1     -0.500000       15.9990           0
    9761 QQQ  611  NMP  C1   CG331     -0.161000       12.0110           0
    9762 QQQ  611  NMP  H1   HGA3       0.090000        1.0080           0
    9763 QQQ  611  NMP  H2   HGA3       0.090000        1.0080           0
    9764 QQQ  611  NMP  H3   HGA3       0.090000        1.0080           0
    9765 QQQ  611  NMP  N2   NG2R53    -0.098000       14.0070           0
    9766 QQQ  611  NMP  C3   CG3C52    -0.077000       12.0110           0
    9767 QQQ  611  NMP  H4   HGA2       0.090000        1.0080           0
    9768 QQQ  611  NMP  H5   HGA2       0.090000        1.0080           0
    9769 QQQ  611  NMP  C4   CG3C52    -0.233000       12.0110           0
    9770 QQQ  611  NMP  H6   HGA2       0.090000        1.0080           0
    9771 QQQ  611  NMP  H7   HGA2       0.090000        1.0080           0
    9772 QQQ  611  NMP  C5   CG3C52    -0.027000       12.0110           0
    9773 QQQ  611  NMP  H8   HGA2       0.090000        1.0080           0
    9774 QQQ  611  NMP  H9   HGA2       0.090000        1.0080           0
    9775 QQQ  611  NMP  C6   CG2R53     0.286000       12.0110           0
    9776 QQQ  611  NMP  O7   OG2D1     -0.500000       15.9990           0
    9777 QQQ  612  NMP  C1   CG331     -0.161000       12.0110           0
    9778 QQQ  612  NMP  H1   HGA3       0.090000        1.0080           0
    9779 QQQ  612  NMP  H2   HGA3       0.090000        1.0080           0
    9780 QQQ  612  NMP  H3   HGA3       0.090000        1.0080           0
    9781 QQQ  612  NMP  N2   NG2R53    -0.098000       14.0070           0
    9782 QQQ  612  NMP  C3   CG3C52    -0.077000       12.0110           0
    9783 QQQ  612  NMP  H4   HGA2       0.090000        1.0080           0
    9784 QQQ  612  NMP  H5   HGA2       0.090000        1.0080           0
    9785 QQQ  612  NMP  C4   CG3C52    -0.233000       12.0110           0
    9786 QQQ  612  NMP  H6   HGA2       0.090000        1.0080           0
    9787 QQQ  612  NMP  H7   HGA2       0.090000        1.0080           0
    9788 QQQ  612  NMP  C5   CG3C52    -0.027000       12.0110           0
    9789 QQQ  612  NMP  H8   HGA2       0.090000        1.0080           0
    9790 QQQ  612  NMP  H9   HGA2       0.090000        1.0080           0
    9791 QQQ  612  NMP  C6   CG2R53     0.286000       12.0110           0
    9792 QQQ  612  NMP  O7   OG2D1     -0.500000       15.9990           0
    9793 QQQ  613  NMP  C1   CG331     -0.161000       12.0110           0
    9794 QQQ  613  NMP  H1   HGA3       0.090000        1.0080           0
    9795 QQQ  613  NMP  H2   HGA3       0.090000        1.0080           0
    9796 QQQ  613  NMP  H3   HGA3       0.090000        1.0080           0
    9797 QQQ  613  NMP  N2   NG2R53    -0.098000       14.0070           0
    9798 QQQ  613  NMP  C3   CG3C52    -0.077000       12.0110           0
    9799 QQQ  613  NMP  H4   HGA2       0.090000        1.0080           0
    9800 QQQ  613  NMP  H5   HGA2       0.090000        1.0080           0
    9801 QQQ  613  NMP  C4   CG3C52    -0.233000       12.0110           0
    9802 QQQ  613  NMP  H6   HGA2       0.090000        1.0080           0
    9803 QQQ  613  NMP  H7   HGA2       0.090000        1.0080           0
    9804 QQQ  613  NMP  C5   CG3C52    -0.027000       12.0110           0
    9805 QQQ  613  NMP  H8   HGA2       0.090000        1.0080           0
    9806 QQQ  613  NMP  H9   HGA2       0.090000        1.0080           0
    9807 QQQ  613  NMP  C6   CG2R53     0.286000       12.0110           0
    9808 QQQ  613  NMP  O7   OG2D1     -0.500000       15.9990           0
    9809 QQQ  614  NMP  C1   CG331     -0.161000       12.0110           0
    9810 QQQ  614  NMP  H1   HGA3       0.090000        1.0080           0
    9811 QQQ  614  NMP  H2   HGA3       0.090000        1.0080           0
    9812 QQQ  614  NMP  H3   HGA3       0.090000        1.0080           0
    9813 QQQ  614  NMP  N2   NG2R53    -0.098000       14.0070           0
    9814 QQQ  614  NMP  C3   CG3C52    -0.077000       12.0110           0
    9815 QQQ  614  NMP  H4   HGA2       0.090000        1.0080           0
    9816 QQQ  614  NMP  H5   HGA2       0.090000        1.0080           0
    9817 QQQ  614  NMP  C4   CG3C52    -0.233000       12.0110           0
    9818 QQQ  614  NMP  H6   HGA2       0.090000        1.0080           0
    9819 QQQ  614  NMP  H7   HGA2       0.090000        1.0080           0
    9820 QQQ  614  NMP  C5   CG3C52    -0.027000       12.0110           0
    9821 QQQ  614  NMP  H8   HGA2       0.090000        1.0080           0
    9822 QQQ  614  NMP  H9   HGA2       0.090000        1.0080           0
    9823 QQQ  614  NMP  C6   CG2R53     0.286000       12.0110           0
    9824 QQQ  614  NMP  O7   OG2D1     -0.500000       15.9990           0
    9825 QQQ  615  NMP  C1   CG331     -0.161000       12.0110           0
    9826 QQQ  615  NMP  H1   HGA3       0.090000        1.0080           0
    9827 QQQ  615  NMP  H2   HGA3       0.090000        1.0080           0
    9828 QQQ  615  NMP  H3   HGA3       0.090000        1.0080           0
    9829 QQQ  615  NMP  N2   NG2R53    -0.098000       14.0070           0
    9830 QQQ  615  NMP  C3   CG3C52    -0.077000       12.0110           0
    9831 QQQ  615  NMP  H4   HGA2       0.090000        1.0080           0
    9832 QQQ  615  NMP  H5   HGA2       0.090000        1.0080           0
    9833 QQQ  615  NMP  C4   CG3C52    -0.233000       12.0110           0
    9834 QQQ  615  NMP  H6   HGA2       0.090000        1.0080           0
    9835 QQQ  615  NMP  H7   HGA2       0.090000        1.0080           0
    9836 QQQ  615  NMP  C5   CG3C52    -0.027000       12.0110           0
    9837 QQQ  615  NMP  H8   HGA2       0.090000        1.0080           0
    9838 QQQ  615  NMP  H9   HGA2       0.090000        1.0080           0
    9839 QQQ  615  NMP  C6   CG2R53     0.286000       12.0110           0
    9840 QQQ  615  NMP  O7   OG2D1     -0.500000       15.9990           0
    9841 QQQ  616  NMP  C1   CG331     -0.161000       12.0110           0
    9842 QQQ  616  NMP  H1   HGA3       0.090000        1.0080           0
    9843 QQQ  616  NMP  H2   HGA3       0.090000        1.0080           0
    9844 QQQ  616  NMP  H3   HGA3       0.090000        1.0080           0
    9845 QQQ  616  NMP  N2   NG2R53    -0.098000       14.0070           0
    9846 QQQ  616  NMP  C3   CG3C52    -0.077000       12.0110           0
    9847 QQQ  616  NMP  H4   HGA2       0.090000        1.0080           0
    9848 QQQ  616  NMP  H5   HGA2       0.090000        1.0080           0
    9849 QQQ  616  NMP  C4   CG3C52    -0.233000       12.0110           0
    9850 QQQ  616  NMP  H6   HGA2       0.090000        1.0080           0
    9851 QQQ  616  NMP  H7   HGA2       0.090000        1.0080           0
    9852 QQQ  616  NMP  C5   CG3C52    -0.027000       12.0110           0
    9853 QQQ  616  NMP  H8   HGA2       0.090000        1.0080           0
    9854 QQQ  616  NMP  H9   HGA2       0.090000        1.0080           0
    9855 QQQ  616  NMP  C6   CG2R53     0.286000       12.0110           0
    9856 QQQ  616  NMP  O7   OG2D1     -0.500000       15.9990           0
    9857 QQQ  617  NMP  C1   CG331     -0.161000       12.0110           0
    9858 QQQ  617  NMP  H1   HGA3       0.090000        1.0080           0
    9859 QQQ  617  NMP  H2   HGA3       0.090000        1.0080           0
    9860 QQQ  617  NMP  H3   HGA3       0.090000        1.0080           0
    9861 QQQ  617  NMP  N2   NG2R53    -0.098000       14.0070           0
    9862 QQQ  617  NMP  C3   CG3C52    -0.077000       12.0110           0
    9863 QQQ  617  NMP  H4   HGA2       0.090000        1.0080           0
    9864 QQQ  617  NMP  H5   HGA2       0.090000        1.0080           0
    9865 QQQ  617  NMP  C4   CG3C52    -0.233000       12.0110           0
    9866 QQQ  617  NMP  H6   HGA2       0.090000        1.0080           0
    9867 QQQ  617  NMP  H7   HGA2       0.090000        1.0080           0
    9868 QQQ  617  NMP  C5   CG3C52    -0.027000       12.0110           0
    9869 QQQ  617  NMP  H8   HGA2       0.090000        1.0080           0
    9870 QQQ  617  NMP  H9   HGA2       0.090000        1.0080           0
    9871 QQQ  617  NMP  C6   CG2R53     0.286000       12.0110           0
    9872 QQQ  617  NMP  O7   OG2D1     -0.500000       15.9990           0
    9873 QQQ  618  NMP  C1   CG331     -0.161000       12.0110           0
    9874 QQQ  618  NMP  H1   HGA3       0.090000        1.0080           0
    9875 QQQ  618  NMP  H2   HGA3       0.090000        1.0080           0
    9876 QQQ  618  NMP  H3   HGA3       0.090000        1.0080           0
    9877 QQQ  618  NMP  N2   NG2R53    -0.098000       14.0070           0
    9878 QQQ  618  NMP  C3   CG3C52    -0.077000       12.0110           0
    9879 QQQ  618  NMP  H4   HGA2       0.090000        1.0080           0
    9880 QQQ  618  NMP  H5   HGA2       0.090000        1.0080           0
    9881 QQQ  618  NMP  C4   CG3C52    -0.233000       12.0110           0
    9882 QQQ  618  NMP  H6   HGA2       0.090000        1.0080           0
    9883 QQQ  618  NMP  H7   HGA2       0.090000        1.0080           0
    9884 QQQ  618  NMP  C5   CG3C52    -0.027000       12.0110           0
    9885 QQQ  618  NMP  H8   HGA2       0.090000        1.0080           0
    9886 QQQ  618  NMP  H9   HGA2       0.090000        1.0080           0
    9887 QQQ  618  NMP  C6   CG2R53     0.286000       12.0110           0
    9888 QQQ  618  NMP  O7   OG2D1     -0.500000       15.9990           0
    9889 QQQ  619  NMP  C1   CG331     -0.161000       12.0110           0
    9890 QQQ  619  NMP  H1   HGA3       0.090000        1.0080           0
    9891 QQQ  619  NMP  H2   HGA3       0.090000        1.0080           0
    9892 QQQ  619  NMP  H3   HGA3       0.090000        1.0080           0
    9893 QQQ  619  NMP  N2   NG2R53    -0.098000       14.0070           0
    9894 QQQ  619  NMP  C3   CG3C52    -0.077000       12.0110           0
    9895 QQQ  619  NMP  H4   HGA2       0.090000        1.0080           0
    9896 QQQ  619  NMP  H5   HGA2       0.090000        1.0080           0
    9897 QQQ  619  NMP  C4   CG3C52    -0.233000       12.0110           0
    9898 QQQ  619  NMP  H6   HGA2       0.090000        1.0080           0
    9899 QQQ  619  NMP  H7   HGA2       0.090000        1.0080           0
    9900 QQQ  619  NMP  C5   CG3C52    -0.027000       12.0110           0
    9901 QQQ  619  NMP  H8   HGA2       0.090000        1.0080           0
    9902 QQQ  619  NMP  H9   HGA2       0.090000        1.0080           0
    9903 QQQ  619  NMP  C6   CG2R53     0.286000       12.0110           0
    9904 QQQ  619  NMP  O7   OG2D1     -0.500000       15.9990           0
    9905 QQQ  620  NMP  C1   CG331     -0.161000       12.0110           0
    9906 QQQ  620  NMP  H1   HGA3       0.090000        1.0080           0
    9907 QQQ  620  NMP  H2   HGA3       0.090000        1.0080           0
    9908 QQQ  620  NMP  H3   HGA3       0.090000        1.0080           0
    9909 QQQ  620  NMP  N2   NG2R53    -0.098000       14.0070           0
    9910 QQQ  620  NMP  C3   CG3C52    -0.077000       12.0110           0
    9911 QQQ  620  NMP  H4   HGA2       0.090000        1.0080           0
    9912 QQQ  620  NMP  H5   HGA2       0.090000        1.0080           0
    9913 QQQ  620  NMP  C4   CG3C52    -0.233000       12.0110           0
    9914 QQQ  620  NMP  H6   HGA2       0.090000        1.0080           0
    9915 QQQ  620  NMP  H7   HGA2       0.090000        1.0080           0
    9916 QQQ  620  NMP  C5   CG3C52    -0.027000       12.0110           0
    9917 QQQ  620  NMP  H8   HGA2       0.090000        1.0080           0
    9918 QQQ  620  NMP  H9   HGA2       0.090000        1.0080           0
    9919 QQQ  620  NMP  C6   CG2R53     0.286000       12.0110           0
    9920 QQQ  620  NMP  O7   OG2D1     -0.500000       15.9990           0
    9921 QQQ  621  NMP  C1   CG331     -0.161000       12.0110           0
    9922 QQQ  621  NMP  H1   HGA3       0.090000        1.0080           0
    9923 QQQ  621  NMP  H2   HGA3       0.090000        1.0080           0
    9924 QQQ  621  NMP  H3   HGA3       0.090000        1.0080           0
    9925 QQQ  621  NMP  N2   NG2R53    -0.098000       14.0070           0
    9926 QQQ  621  NMP  C3   CG3C52    -0.077000       12.0110           0
    9927 QQQ  621  NMP  H4   HGA2       0.090000        1.0080           0
    9928 QQQ  621  NMP  H5   HGA2       0.090000        1.0080           0
    9929 QQQ  621  NMP  C4   CG3C52    -0.233000       12.0110           0
    9930 QQQ  621  NMP  H6   HGA2       0.090000        1.0080           0
    9931 QQQ  621  NMP  H7   HGA2       0.090000        1.0080           0
    9932 QQQ  621  NMP  C5   CG3C52    -0.027000       12.0110           0
    9933 QQQ  621  NMP  H8   HGA2       0.090000        1.0080           0
    9934 QQQ  621  NMP  H9   HGA2       0.090000        1.0080           0
    9935 QQQ  621  NMP  C6   CG2R53     0.286000       12.0110           0
    9936 QQQ  621  NMP  O7   OG2D1     -0.500000       15.9990           0
    9937 QQQ  622  NMP  C1   CG331     -0.161000       12.0110           0
    9938 QQQ  622  NMP  H1   HGA3       0.090000        1.0080           0
    9939 QQQ  622  NMP  H2   HGA3       0.090000        1.0080           0
    9940 QQQ  622  NMP  H3   HGA3       0.090000        1.0080           0
    9941 QQQ  622  NMP  N2   NG2R53    -0.098000       14.0070           0
    9942 QQQ  622  NMP  C3   CG3C52    -0.077000       12.0110           0
    9943 QQQ  622  NMP  H4   HGA2       0.090000        1.0080           0
    9944 QQQ  622  NMP  H5   HGA2       0.090000        1.0080           0
    9945 QQQ  622  NMP  C4   CG3C52    -0.233000       12.0110           0
    9946 QQQ  622  NMP  H6   HGA2       0.090000        1.0080           0
    9947 QQQ  622  NMP  H7   HGA2       0.090000        1.0080           0
    9948 QQQ  622  NMP  C5   CG3C52    -0.027000       12.0110           0
    9949 QQQ  622  NMP  H8   HGA2       0.090000        1.0080           0
    9950 QQQ  622  NMP  H9   HGA2       0.090000        1.0080           0
    9951 QQQ  622  NMP  C6   CG2R53     0.286000       12.0110           0
    9952 QQQ  622  NMP  O7   OG2D1     -0.500000       15.9990           0
    9953 QQQ  623  NMP  C1   CG331     -0.161000       12.0110           0
    9954 QQQ  623  NMP  H1   HGA3       0.090000        1.0080           0
    9955 QQQ  623  NMP  H2   HGA3       0.090000        1.0080           0
    9956 QQQ  623  NMP  H3   HGA3       0.090000        1.0080           0
    9957 QQQ  623  NMP  N2   NG2R53    -0.098000       14.0070           0
    9958 QQQ  623  NMP  C3   CG3C52    -0.077000       12.0110           0
    9959 QQQ  623  NMP  H4   HGA2       0.090000        1.0080           0
    9960 QQQ  623  NMP  H5   HGA2       0.090000        1.0080           0
    9961 QQQ  623  NMP  C4   CG3C52    -0.233000       12.0110           0
    9962 QQQ  623  NMP  H6   HGA2       0.090000        1.0080           0
    9963 QQQ  623  NMP  H7   HGA2       0.090000        1.0080           0
    9964 QQQ  623  NMP  C5   CG3C52    -0.027000       12.0110           0
    9965 QQQ  623  NMP  H8   HGA2       0.090000        1.0080           0
    9966 QQQ  623  NMP  H9   HGA2       0.090000        1.0080           0
    9967 QQQ  623  NMP  C6   CG2R53     0.286000       12.0110           0
    9968 QQQ  623  NMP  O7   OG2D1     -0.500000       15.9990           0
    9969 QQQ  624  NMP  C1   CG331     -0.161000       12.0110           0
    9970 QQQ  624  NMP  H1   HGA3       0.090000        1.0080           0
    9971 QQQ  624  NMP  H2   HGA3       0.090000        1.0080           0
    9972 QQQ  624  NMP  H3   HGA3       0.090000        1.0080           0
    9973 QQQ  624  NMP  N2   NG2R53    -0.098000       14.0070           0
    9974 QQQ  624  NMP  C3   CG3C52    -0.077000       12.0110           0
    9975 QQQ  624  NMP  H4   HGA2       0.090000        1.0080           0
    9976 QQQ  624  NMP  H5   HGA2       0.090000        1.0080           0
    9977 QQQ  624  NMP  C4   CG3C52    -0.233000       12.0110           0
    9978 QQQ  624  NMP  H6   HGA2       0.090000        1.0080           0
    9979 QQQ  624  NMP  H7   HGA2       0.090000        1.0080           0
    9980 QQQ  624  NMP  C5   CG3C52    -0.027000       12.0110           0
    9981 QQQ  624  NMP  H8   HGA2       0.090000        1.0080           0
    9982 QQQ  624  NMP  H9   HGA2       0.090000        1.0080           0
    9983 QQQ  624  NMP  C6   CG2R53     0.286000       12.0110           0
    9984 QQQ  624  NMP  O7   OG2D1     -0.500000       15.9990           0
    9985 QQQ  625  NMP  C1   CG331     -0.161000       12.0110           0
    9986 QQQ  625  NMP  H1   HGA3       0.090000        1.0080           0
    9987 QQQ  625  NMP  H2   HGA3       0.090000        1.0080           0
    9988 QQQ  625  NMP  H3   HGA3       0.090000        1.0080           0
    9989 QQQ  625  NMP  N2   NG2R53    -0.098000       14.0070           0
    9990 QQQ  625  NMP  C3   CG3C52    -0.077000       12.0110           0
    9991 QQQ  625  NMP  H4   HGA2       0.090000        1.0080           0
    9992 QQQ  625  NMP  H5   HGA2       0.090000        1.0080           0
    9993 QQQ  625  NMP  C4   CG3C52    -0.233000       12.0110           0
    9994 QQQ  625  NMP  H6   HGA2       0.090000        1.0080           0
    9995 QQQ  625  NMP  H7   HGA2       0.090000        1.0080           0
    9996 QQQ  625  NMP  C5   CG3C52    -0.027000       12.0110           0
    9997 QQQ  625  NMP  H8   HGA2       0.090000        1.0080           0
    9998 QQQ  625  NMP  H9   HGA2       0.090000        1.0080           0
    9999 QQQ  625  NMP  C6   CG2R53     0.286000       12.0110           0
   10000 QQQ  625  NMP  O7   OG2D1     -0.500000       15.9990           0
   10001 QQQ  626  NMP  C1   CG331     -0.161000       12.0110           0
   10002 QQQ  626  NMP  H1   HGA3       0.090000        1.0080           0
   10003 QQQ  626  NMP  H2   HGA3       0.090000        1.0080           0
   10004 QQQ  626  NMP  H3   HGA3       0.090000        1.0080           0
   10005 QQQ  626  NMP  N2   NG2R53    -0.098000       14.0070           0
   10006 QQQ  626  NMP  C3   CG3C52    -0.077000       12.0110           0
   10007 QQQ  626  NMP  H4   HGA2       0.090000        1.0080           0
   10008 QQQ  626  NMP  H5   HGA2       0.090000        1.0080           0
   10009 QQQ  626  NMP  C4   CG3C52    -0.233000       12.0110           0
   10010 QQQ  626  NMP  H6   HGA2       0.090000        1.0080           0
   10011 QQQ  626  NMP  H7   HGA2       0.090000        1.0080           0
   10012 QQQ  626  NMP  C5   CG3C52    -0.027000       12.0110           0
   10013 QQQ  626  NMP  H8   HGA2       0.090000        1.0080           0
   10014 QQQ  626  NMP  H9   HGA2       0.090000        1.0080           0
   10015 QQQ  626  NMP  C6   CG2R53     0.286000       12.0110           0
   10016 QQQ  626  NMP  O7   OG2D1     -0.500000       15.9990           0
   10017 QQQ  627  NMP  C1   CG331     -0.161000       12.0110           0
   10018 QQQ  627  NMP  H1   HGA3       0.090000        1.0080           0
   10019 QQQ  627  NMP  H2   HGA3       0.090000        1.0080           0
   10020 QQQ  627  NMP  H3   HGA3       0.090000        1.0080           0
   10021 QQQ  627  NMP  N2   NG2R53    -0.098000       14.0070           0
   10022 QQQ  627  NMP  C3   CG3C52    -0.077000       12.0110           0
   10023 QQQ  627  NMP  H4   HGA2       0.090000        1.0080           0
   10024 QQQ  627  NMP  H5   HGA2       0.090000        1.0080           0
   10025 QQQ  627  NMP  C4   CG3C52    -0.233000       12.0110           0
   10026 QQQ  627  NMP  H6   HGA2       0.090000        1.0080           0
   10027 QQQ  627  NMP  H7   HGA2       0.090000        1.0080           0
   10028 QQQ  627  NMP  C5   CG3C52    -0.027000       12.0110           0
   10029 QQQ  627  NMP  H8   HGA2       0.090000        1.0080           0
   10030 QQQ  627  NMP  H9   HGA2       0.090000        1.0080           0
   10031 QQQ  627  NMP  C6   CG2R53     0.286000       12.0110           0
   10032 QQQ  627  NMP  O7   OG2D1     -0.500000       15.9990           0
   10033 QQQ  628  NMP  C1   CG331     -0.161000       12.0110           0
   10034 QQQ  628  NMP  H1   HGA3       0.090000        1.0080           0
   10035 QQQ  628  NMP  H2   HGA3       0.090000        1.0080           0
   10036 QQQ  628  NMP  H3   HGA3       0.090000        1.0080           0
   10037 QQQ  628  NMP  N2   NG2R53    -0.098000       14.0070           0
   10038 QQQ  628  NMP  C3   CG3C52    -0.077000       12.0110           0
   10039 QQQ  628  NMP  H4   HGA2       0.090000        1.0080           0
   10040 QQQ  628  NMP  H5   HGA2       0.090000        1.0080           0
   10041 QQQ  628  NMP  C4   CG3C52    -0.233000       12.0110           0
   10042 QQQ  628  NMP  H6   HGA2       0.090000        1.0080           0
   10043 QQQ  628  NMP  H7   HGA2       0.090000        1.0080           0
   10044 QQQ  628  NMP  C5   CG3C52    -0.027000       12.0110           0
   10045 QQQ  628  NMP  H8   HGA2       0.090000        1.0080           0
   10046 QQQ  628  NMP  H9   HGA2       0.090000        1.0080           0
   10047 QQQ  628  NMP  C6   CG2R53     0.286000       12.0110           0
   10048 QQQ  628  NMP  O7   OG2D1     -0.500000       15.9990           0
   10049 QQQ  629  NMP  C1   CG331     -0.161000       12.0110           0
   10050 QQQ  629  NMP  H1   HGA3       0.090000        1.0080           0
   10051 QQQ  629  NMP  H2   HGA3       0.090000        1.0080           0
   10052 QQQ  629  NMP  H3   HGA3       0.090000        1.0080           0
   10053 QQQ  629  NMP  N2   NG2R53    -0.098000       14.0070           0
   10054 QQQ  629  NMP  C3   CG3C52    -0.077000       12.0110           0
   10055 QQQ  629  NMP  H4   HGA2       0.090000        1.0080           0
   10056 QQQ  629  NMP  H5   HGA2       0.090000        1.0080           0
   10057 QQQ  629  NMP  C4   CG3C52    -0.233000       12.0110           0
   10058 QQQ  629  NMP  H6   HGA2       0.090000        1.0080           0
   10059 QQQ  629  NMP  H7   HGA2       0.090000        1.0080           0
   10060 QQQ  629  NMP  C5   CG3C52    -0.027000       12.0110           0
   10061 QQQ  629  NMP  H8   HGA2       0.090000        1.0080           0
   10062 QQQ  629  NMP  H9   HGA2       0.090000        1.0080           0
   10063 QQQ  629  NMP  C6   CG2R53     0.286000       12.0110           0
   10064 QQQ  629  NMP  O7   OG2D1     -0.500000       15.9990           0
   10065 QQQ  630  NMP  C1   CG331     -0.161000       12.0110           0
   10066 QQQ  630  NMP  H1   HGA3       0.090000        1.0080           0
   10067 QQQ  630  NMP  H2   HGA3       0.090000        1.0080           0
   10068 QQQ  630  NMP  H3   HGA3       0.090000        1.0080           0
   10069 QQQ  630  NMP  N2   NG2R53    -0.098000       14.0070           0
   10070 QQQ  630  NMP  C3   CG3C52    -0.077000       12.0110           0
   10071 QQQ  630  NMP  H4   HGA2       0.090000        1.0080           0
   10072 QQQ  630  NMP  H5   HGA2       0.090000        1.0080           0
   10073 QQQ  630  NMP  C4   CG3C52    -0.233000       12.0110           0
   10074 QQQ  630  NMP  H6   HGA2       0.090000        1.0080           0
   10075 QQQ  630  NMP  H7   HGA2       0.090000        1.0080           0
   10076 QQQ  630  NMP  C5   CG3C52    -0.027000       12.0110           0
   10077 QQQ  630  NMP  H8   HGA2       0.090000        1.0080           0
   10078 QQQ  630  NMP  H9   HGA2       0.090000        1.0080           0
   10079 QQQ  630  NMP  C6   CG2R53     0.286000       12.0110           0
   10080 QQQ  630  NMP  O7   OG2D1     -0.500000       15.9990           0
   10081 QQQ  631  NMP  C1   CG331     -0.161000       12.0110           0
   10082 QQQ  631  NMP  H1   HGA3       0.090000        1.0080           0
   10083 QQQ  631  NMP  H2   HGA3       0.090000        1.0080           0
   10084 QQQ  631  NMP  H3   HGA3       0.090000        1.0080           0
   10085 QQQ  631  NMP  N2   NG2R53    -0.098000       14.0070           0
   10086 QQQ  631  NMP  C3   CG3C52    -0.077000       12.0110           0
   10087 QQQ  631  NMP  H4   HGA2       0.090000        1.0080           0
   10088 QQQ  631  NMP  H5   HGA2       0.090000        1.0080           0
   10089 QQQ  631  NMP  C4   CG3C52    -0.233000       12.0110           0
   10090 QQQ  631  NMP  H6   HGA2       0.090000        1.0080           0
   10091 QQQ  631  NMP  H7   HGA2       0.090000        1.0080           0
   10092 QQQ  631  NMP  C5   CG3C52    -0.027000       12.0110           0
   10093 QQQ  631  NMP  H8   HGA2       0.090000        1.0080           0
   10094 QQQ  631  NMP  H9   HGA2       0.090000        1.0080           0
   10095 QQQ  631  NMP  C6   CG2R53     0.286000       12.0110           0
   10096 QQQ  631  NMP  O7   OG2D1     -0.500000       15.9990           0
   10097 QQQ  632  NMP  C1   CG331     -0.161000       12.0110           0
   10098 QQQ  632  NMP  H1   HGA3       0.090000        1.0080           0
   10099 QQQ  632  NMP  H2   HGA3       0.090000        1.0080           0
   10100 QQQ  632  NMP  H3   HGA3       0.090000        1.0080           0
   10101 QQQ  632  NMP  N2   NG2R53    -0.098000       14.0070           0
   10102 QQQ  632  NMP  C3   CG3C52    -0.077000       12.0110           0
   10103 QQQ  632  NMP  H4   HGA2       0.090000        1.0080           0
   10104 QQQ  632  NMP  H5   HGA2       0.090000        1.0080           0
   10105 QQQ  632  NMP  C4   CG3C52    -0.233000       12.0110           0
   10106 QQQ  632  NMP  H6   HGA2       0.090000        1.0080           0
   10107 QQQ  632  NMP  H7   HGA2       0.090000        1.0080           0
   10108 QQQ  632  NMP  C5   CG3C52    -0.027000       12.0110           0
   10109 QQQ  632  NMP  H8   HGA2       0.090000        1.0080           0
   10110 QQQ  632  NMP  H9   HGA2       0.090000        1.0080           0
   10111 QQQ  632  NMP  C6   CG2R53     0.286000       12.0110           0
   10112 QQQ  632  NMP  O7   OG2D1     -0.500000       15.9990           0
   10113 QQQ  633  NMP  C1   CG331     -0.161000       12.0110           0
   10114 QQQ  633  NMP  H1   HGA3       0.090000        1.0080           0
   10115 QQQ  633  NMP  H2   HGA3       0.090000        1.0080           0
   10116 QQQ  633  NMP  H3   HGA3       0.090000        1.0080           0
   10117 QQQ  633  NMP  N2   NG2R53    -0.098000       14.0070           0
   10118 QQQ  633  NMP  C3   CG3C52    -0.077000       12.0110           0
   10119 QQQ  633  NMP  H4   HGA2       0.090000        1.0080           0
   10120 QQQ  633  NMP  H5   HGA2       0.090000        1.0080           0
   10121 QQQ  633  NMP  C4   CG3C52    -0.233000       12.0110           0
   10122 QQQ  633  NMP  H6   HGA2       0.090000        1.0080           0
   10123 QQQ  633  NMP  H7   HGA2       0.090000        1.0080           0
   10124 QQQ  633  NMP  C5   CG3C52    -0.027000       12.0110           0
   10125 QQQ  633  NMP  H8   HGA2       0.090000        1.0080           0
   10126 QQQ  633  NMP  H9   HGA2       0.090000        1.0080           0
   10127 QQQ  633  NMP  C6   CG2R53     0.286000       12.0110           0
   10128 QQQ  633  NMP  O7   OG2D1     -0.500000       15.9990           0
   10129 QQQ  634  NMP  C1   CG331     -0.161000       12.0110           0
   10130 QQQ  634  NMP  H1   HGA3       0.090000        1.0080           0
   10131 QQQ  634  NMP  H2   HGA3       0.090000        1.0080           0
   10132 QQQ  634  NMP  H3   HGA3       0.090000        1.0080           0
   10133 QQQ  634  NMP  N2   NG2R53    -0.098000       14.0070           0
   10134 QQQ  634  NMP  C3   CG3C52    -0.077000       12.0110           0
   10135 QQQ  634  NMP  H4   HGA2       0.090000        1.0080           0
   10136 QQQ  634  NMP  H5   HGA2       0.090000        1.0080           0
   10137 QQQ  634  NMP  C4   CG3C52    -0.233000       12.0110           0
   10138 QQQ  634  NMP  H6   HGA2       0.090000        1.0080           0
   10139 QQQ  634  NMP  H7   HGA2       0.090000        1.0080           0
   10140 QQQ  634  NMP  C5   CG3C52    -0.027000       12.0110           0
   10141 QQQ  634  NMP  H8   HGA2       0.090000        1.0080           0
   10142 QQQ  634  NMP  H9   HGA2       0.090000        1.0080           0
   10143 QQQ  634  NMP  C6   CG2R53     0.286000       12.0110           0
   10144 QQQ  634  NMP  O7   OG2D1     -0.500000       15.9990           0
   10145 QQQ  635  NMP  C1   CG331     -0.161000       12.0110           0
   10146 QQQ  635  NMP  H1   HGA3       0.090000        1.0080           0
   10147 QQQ  635  NMP  H2   HGA3       0.090000        1.0080           0
   10148 QQQ  635  NMP  H3   HGA3       0.090000        1.0080           0
   10149 QQQ  635  NMP  N2   NG2R53    -0.098000       14.0070           0
   10150 QQQ  635  NMP  C3   CG3C52    -0.077000       12.0110           0
   10151 QQQ  635  NMP  H4   HGA2       0.090000        1.0080           0
   10152 QQQ  635  NMP  H5   HGA2       0.090000        1.0080           0
   10153 QQQ  635  NMP  C4   CG3C52    -0.233000       12.0110           0
   10154 QQQ  635  NMP  H6   HGA2       0.090000        1.0080           0
   10155 QQQ  635  NMP  H7   HGA2       0.090000        1.0080           0
   10156 QQQ  635  NMP  C5   CG3C52    -0.027000       12.0110           0
   10157 QQQ  635  NMP  H8   HGA2       0.090000        1.0080           0
   10158 QQQ  635  NMP  H9   HGA2       0.090000        1.0080           0
   10159 QQQ  635  NMP  C6   CG2R53     0.286000       12.0110           0
   10160 QQQ  635  NMP  O7   OG2D1     -0.500000       15.9990           0
   10161 QQQ  636  NMP  C1   CG331     -0.161000       12.0110           0
   10162 QQQ  636  NMP  H1   HGA3       0.090000        1.0080           0
   10163 QQQ  636  NMP  H2   HGA3       0.090000        1.0080           0
   10164 QQQ  636  NMP  H3   HGA3       0.090000        1.0080           0
   10165 QQQ  636  NMP  N2   NG2R53    -0.098000       14.0070           0
   10166 QQQ  636  NMP  C3   CG3C52    -0.077000       12.0110           0
   10167 QQQ  636  NMP  H4   HGA2       0.090000        1.0080           0
   10168 QQQ  636  NMP  H5   HGA2       0.090000        1.0080           0
   10169 QQQ  636  NMP  C4   CG3C52    -0.233000       12.0110           0
   10170 QQQ  636  NMP  H6   HGA2       0.090000        1.0080           0
   10171 QQQ  636  NMP  H7   HGA2       0.090000        1.0080           0
   10172 QQQ  636  NMP  C5   CG3C52    -0.027000       12.0110           0
   10173 QQQ  636  NMP  H8   HGA2       0.090000        1.0080           0
   10174 QQQ  636  NMP  H9   HGA2       0.090000        1.0080           0
   10175 QQQ  636  NMP  C6   CG2R53     0.286000       12.0110           0
   10176 QQQ  636  NMP  O7   OG2D1     -0.500000       15.9990           0
   10177 QQQ  637  NMP  C1   CG331     -0.161000       12.0110           0
   10178 QQQ  637  NMP  H1   HGA3       0.090000        1.0080           0
   10179 QQQ  637  NMP  H2   HGA3       0.090000        1.0080           0
   10180 QQQ  637  NMP  H3   HGA3       0.090000        1.0080           0
   10181 QQQ  637  NMP  N2   NG2R53    -0.098000       14.0070           0
   10182 QQQ  637  NMP  C3   CG3C52    -0.077000       12.0110           0
   10183 QQQ  637  NMP  H4   HGA2       0.090000        1.0080           0
   10184 QQQ  637  NMP  H5   HGA2       0.090000        1.0080           0
   10185 QQQ  637  NMP  C4   CG3C52    -0.233000       12.0110           0
   10186 QQQ  637  NMP  H6   HGA2       0.090000        1.0080           0
   10187 QQQ  637  NMP  H7   HGA2       0.090000        1.0080           0
   10188 QQQ  637  NMP  C5   CG3C52    -0.027000       12.0110           0
   10189 QQQ  637  NMP  H8   HGA2       0.090000        1.0080           0
   10190 QQQ  637  NMP  H9   HGA2       0.090000        1.0080           0
   10191 QQQ  637  NMP  C6   CG2R53     0.286000       12.0110           0
   10192 QQQ  637  NMP  O7   OG2D1     -0.500000       15.9990           0
   10193 QQQ  638  NMP  C1   CG331     -0.161000       12.0110           0
   10194 QQQ  638  NMP  H1   HGA3       0.090000        1.0080           0
   10195 QQQ  638  NMP  H2   HGA3       0.090000        1.0080           0
   10196 QQQ  638  NMP  H3   HGA3       0.090000        1.0080           0
   10197 QQQ  638  NMP  N2   NG2R53    -0.098000       14.0070           0
   10198 QQQ  638  NMP  C3   CG3C52    -0.077000       12.0110           0
   10199 QQQ  638  NMP  H4   HGA2       0.090000        1.0080           0
   10200 QQQ  638  NMP  H5   HGA2       0.090000        1.0080           0
   10201 QQQ  638  NMP  C4   CG3C52    -0.233000       12.0110           0
   10202 QQQ  638  NMP  H6   HGA2       0.090000        1.0080           0
   10203 QQQ  638  NMP  H7   HGA2       0.090000        1.0080           0
   10204 QQQ  638  NMP  C5   CG3C52    -0.027000       12.0110           0
   10205 QQQ  638  NMP  H8   HGA2       0.090000        1.0080           0
   10206 QQQ  638  NMP  H9   HGA2       0.090000        1.0080           0
   10207 QQQ  638  NMP  C6   CG2R53     0.286000       12.0110           0
   10208 QQQ  638  NMP  O7   OG2D1     -0.500000       15.9990           0
   10209 QQQ  639  NMP  C1   CG331     -0.161000       12.0110           0
   10210 QQQ  639  NMP  H1   HGA3       0.090000        1.0080           0
   10211 QQQ  639  NMP  H2   HGA3       0.090000        1.0080           0
   10212 QQQ  639  NMP  H3   HGA3       0.090000        1.0080           0
   10213 QQQ  639  NMP  N2   NG2R53    -0.098000       14.0070           0
   10214 QQQ  639  NMP  C3   CG3C52    -0.077000       12.0110           0
   10215 QQQ  639  NMP  H4   HGA2       0.090000        1.0080           0
   10216 QQQ  639  NMP  H5   HGA2       0.090000        1.0080           0
   10217 QQQ  639  NMP  C4   CG3C52    -0.233000       12.0110           0
   10218 QQQ  639  NMP  H6   HGA2       0.090000        1.0080           0
   10219 QQQ  639  NMP  H7   HGA2       0.090000        1.0080           0
   10220 QQQ  639  NMP  C5   CG3C52    -0.027000       12.0110           0
   10221 QQQ  639  NMP  H8   HGA2       0.090000        1.0080           0
   10222 QQQ  639  NMP  H9   HGA2       0.090000        1.0080           0
   10223 QQQ  639  NMP  C6   CG2R53     0.286000       12.0110           0
   10224 QQQ  639  NMP  O7   OG2D1     -0.500000       15.9990           0
   10225 QQQ  640  NMP  C1   CG331     -0.161000       12.0110           0
   10226 QQQ  640  NMP  H1   HGA3       0.090000        1.0080           0
   10227 QQQ  640  NMP  H2   HGA3       0.090000        1.0080           0
   10228 QQQ  640  NMP  H3   HGA3       0.090000        1.0080           0
   10229 QQQ  640  NMP  N2   NG2R53    -0.098000       14.0070           0
   10230 QQQ  640  NMP  C3   CG3C52    -0.077000       12.0110           0
   10231 QQQ  640  NMP  H4   HGA2       0.090000        1.0080           0
   10232 QQQ  640  NMP  H5   HGA2       0.090000        1.0080           0
   10233 QQQ  640  NMP  C4   CG3C52    -0.233000       12.0110           0
   10234 QQQ  640  NMP  H6   HGA2       0.090000        1.0080           0
   10235 QQQ  640  NMP  H7   HGA2       0.090000        1.0080           0
   10236 QQQ  640  NMP  C5   CG3C52    -0.027000       12.0110           0
   10237 QQQ  640  NMP  H8   HGA2       0.090000        1.0080           0
   10238 QQQ  640  NMP  H9   HGA2       0.090000        1.0080           0
   10239 QQQ  640  NMP  C6   CG2R53     0.286000       12.0110           0
   10240 QQQ  640  NMP  O7   OG2D1     -0.500000       15.9990           0
   10241 QQQ  641  NMP  C1   CG331     -0.161000       12.0110           0
   10242 QQQ  641  NMP  H1   HGA3       0.090000        1.0080           0
   10243 QQQ  641  NMP  H2   HGA3       0.090000        1.0080           0
   10244 QQQ  641  NMP  H3   HGA3       0.090000        1.0080           0
   10245 QQQ  641  NMP  N2   NG2R53    -0.098000       14.0070           0
   10246 QQQ  641  NMP  C3   CG3C52    -0.077000       12.0110           0
   10247 QQQ  641  NMP  H4   HGA2       0.090000        1.0080           0
   10248 QQQ  641  NMP  H5   HGA2       0.090000        1.0080           0
   10249 QQQ  641  NMP  C4   CG3C52    -0.233000       12.0110           0
   10250 QQQ  641  NMP  H6   HGA2       0.090000        1.0080           0
   10251 QQQ  641  NMP  H7   HGA2       0.090000        1.0080           0
   10252 QQQ  641  NMP  C5   CG3C52    -0.027000       12.0110           0
   10253 QQQ  641  NMP  H8   HGA2       0.090000        1.0080           0
   10254 QQQ  641  NMP  H9   HGA2       0.090000        1.0080           0
   10255 QQQ  641  NMP  C6   CG2R53     0.286000       12.0110           0
   10256 QQQ  641  NMP  O7   OG2D1     -0.500000       15.9990           0
   10257 QQQ  642  NMP  C1   CG331     -0.161000       12.0110           0
   10258 QQQ  642  NMP  H1   HGA3       0.090000        1.0080           0
   10259 QQQ  642  NMP  H2   HGA3       0.090000        1.0080           0
   10260 QQQ  642  NMP  H3   HGA3       0.090000        1.0080           0
   10261 QQQ  642  NMP  N2   NG2R53    -0.098000       14.0070           0
   10262 QQQ  642  NMP  C3   CG3C52    -0.077000       12.0110           0
   10263 QQQ  642  NMP  H4   HGA2       0.090000        1.0080           0
   10264 QQQ  642  NMP  H5   HGA2       0.090000        1.0080           0
   10265 QQQ  642  NMP  C4   CG3C52    -0.233000       12.0110           0
   10266 QQQ  642  NMP  H6   HGA2       0.090000        1.0080           0
   10267 QQQ  642  NMP  H7   HGA2       0.090000        1.0080           0
   10268 QQQ  642  NMP  C5   CG3C52    -0.027000       12.0110           0
   10269 QQQ  642  NMP  H8   HGA2       0.090000        1.0080           0
   10270 QQQ  642  NMP  H9   HGA2       0.090000        1.0080           0
   10271 QQQ  642  NMP  C6   CG2R53     0.286000       12.0110           0
   10272 QQQ  642  NMP  O7   OG2D1     -0.500000       15.9990           0
   10273 QQQ  643  NMP  C1   CG331     -0.161000       12.0110           0
   10274 QQQ  643  NMP  H1   HGA3       0.090000        1.0080           0
   10275 QQQ  643  NMP  H2   HGA3       0.090000        1.0080           0
   10276 QQQ  643  NMP  H3   HGA3       0.090000        1.0080           0
   10277 QQQ  643  NMP  N2   NG2R53    -0.098000       14.0070           0
   10278 QQQ  643  NMP  C3   CG3C52    -0.077000       12.0110           0
   10279 QQQ  643  NMP  H4   HGA2       0.090000        1.0080           0
   10280 QQQ  643  NMP  H5   HGA2       0.090000        1.0080           0
   10281 QQQ  643  NMP  C4   CG3C52    -0.233000       12.0110           0
   10282 QQQ  643  NMP  H6   HGA2       0.090000        1.0080           0
   10283 QQQ  643  NMP  H7   HGA2       0.090000        1.0080           0
   10284 QQQ  643  NMP  C5   CG3C52    -0.027000       12.0110           0
   10285 QQQ  643  NMP  H8   HGA2       0.090000        1.0080           0
   10286 QQQ  643  NMP  H9   HGA2       0.090000        1.0080           0
   10287 QQQ  643  NMP  C6   CG2R53     0.286000       12.0110           0
   10288 QQQ  643  NMP  O7   OG2D1     -0.500000       15.9990           0
   10289 QQQ  644  NMP  C1   CG331     -0.161000       12.0110           0
   10290 QQQ  644  NMP  H1   HGA3       0.090000        1.0080           0
   10291 QQQ  644  NMP  H2   HGA3       0.090000        1.0080           0
   10292 QQQ  644  NMP  H3   HGA3       0.090000        1.0080           0
   10293 QQQ  644  NMP  N2   NG2R53    -0.098000       14.0070           0
   10294 QQQ  644  NMP  C3   CG3C52    -0.077000       12.0110           0
   10295 QQQ  644  NMP  H4   HGA2       0.090000        1.0080           0
   10296 QQQ  644  NMP  H5   HGA2       0.090000        1.0080           0
   10297 QQQ  644  NMP  C4   CG3C52    -0.233000       12.0110           0
   10298 QQQ  644  NMP  H6   HGA2       0.090000        1.0080           0
   10299 QQQ  644  NMP  H7   HGA2       0.090000        1.0080           0
   10300 QQQ  644  NMP  C5   CG3C52    -0.027000       12.0110           0
   10301 QQQ  644  NMP  H8   HGA2       0.090000        1.0080           0
   10302 QQQ  644  NMP  H9   HGA2       0.090000        1.0080           0
   10303 QQQ  644  NMP  C6   CG2R53     0.286000       12.0110           0
   10304 QQQ  644  NMP  O7   OG2D1     -0.500000       15.9990           0
   10305 QQQ  645  NMP  C1   CG331     -0.161000       12.0110           0
   10306 QQQ  645  NMP  H1   HGA3       0.090000        1.0080           0
   10307 QQQ  645  NMP  H2   HGA3       0.090000        1.0080           0
   10308 QQQ  645  NMP  H3   HGA3       0.090000        1.0080           0
   10309 QQQ  645  NMP  N2   NG2R53    -0.098000       14.0070           0
   10310 QQQ  645  NMP  C3   CG3C52    -0.077000       12.0110           0
   10311 QQQ  645  NMP  H4   HGA2       0.090000        1.0080           0
   10312 QQQ  645  NMP  H5   HGA2       0.090000        1.0080           0
   10313 QQQ  645  NMP  C4   CG3C52    -0.233000       12.0110           0
   10314 QQQ  645  NMP  H6   HGA2       0.090000        1.0080           0
   10315 QQQ  645  NMP  H7   HGA2       0.090000        1.0080           0
   10316 QQQ  645  NMP  C5   CG3C52    -0.027000       12.0110           0
   10317 QQQ  645  NMP  H8   HGA2       0.090000        1.0080           0
   10318 QQQ  645  NMP  H9   HGA2       0.090000        1.0080           0
   10319 QQQ  645  NMP  C6   CG2R53     0.286000       12.0110           0
   10320 QQQ  645  NMP  O7   OG2D1     -0.500000       15.9990           0
   10321 QQQ  646  NMP  C1   CG331     -0.161000       12.0110           0
   10322 QQQ  646  NMP  H1   HGA3       0.090000        1.0080           0
   10323 QQQ  646  NMP  H2   HGA3       0.090000        1.0080           0
   10324 QQQ  646  NMP  H3   HGA3       0.090000        1.0080           0
   10325 QQQ  646  NMP  N2   NG2R53    -0.098000       14.0070           0
   10326 QQQ  646  NMP  C3   CG3C52    -0.077000       12.0110           0
   10327 QQQ  646  NMP  H4   HGA2       0.090000        1.0080           0
   10328 QQQ  646  NMP  H5   HGA2       0.090000        1.0080           0
   10329 QQQ  646  NMP  C4   CG3C52    -0.233000       12.0110           0
   10330 QQQ  646  NMP  H6   HGA2       0.090000        1.0080           0
   10331 QQQ  646  NMP  H7   HGA2       0.090000        1.0080           0
   10332 QQQ  646  NMP  C5   CG3C52    -0.027000       12.0110           0
   10333 QQQ  646  NMP  H8   HGA2       0.090000        1.0080           0
   10334 QQQ  646  NMP  H9   HGA2       0.090000        1.0080           0
   10335 QQQ  646  NMP  C6   CG2R53     0.286000       12.0110           0
   10336 QQQ  646  NMP  O7   OG2D1     -0.500000       15.9990           0
   10337 QQQ  647  NMP  C1   CG331     -0.161000       12.0110           0
   10338 QQQ  647  NMP  H1   HGA3       0.090000        1.0080           0
   10339 QQQ  647  NMP  H2   HGA3       0.090000        1.0080           0
   10340 QQQ  647  NMP  H3   HGA3       0.090000        1.0080           0
   10341 QQQ  647  NMP  N2   NG2R53    -0.098000       14.0070           0
   10342 QQQ  647  NMP  C3   CG3C52    -0.077000       12.0110           0
   10343 QQQ  647  NMP  H4   HGA2       0.090000        1.0080           0
   10344 QQQ  647  NMP  H5   HGA2       0.090000        1.0080           0
   10345 QQQ  647  NMP  C4   CG3C52    -0.233000       12.0110           0
   10346 QQQ  647  NMP  H6   HGA2       0.090000        1.0080           0
   10347 QQQ  647  NMP  H7   HGA2       0.090000        1.0080           0
   10348 QQQ  647  NMP  C5   CG3C52    -0.027000       12.0110           0
   10349 QQQ  647  NMP  H8   HGA2       0.090000        1.0080           0
   10350 QQQ  647  NMP  H9   HGA2       0.090000        1.0080           0
   10351 QQQ  647  NMP  C6   CG2R53     0.286000       12.0110           0
   10352 QQQ  647  NMP  O7   OG2D1     -0.500000       15.9990           0
   10353 QQQ  648  NMP  C1   CG331     -0.161000       12.0110           0
   10354 QQQ  648  NMP  H1   HGA3       0.090000        1.0080           0
   10355 QQQ  648  NMP  H2   HGA3       0.090000        1.0080           0
   10356 QQQ  648  NMP  H3   HGA3       0.090000        1.0080           0
   10357 QQQ  648  NMP  N2   NG2R53    -0.098000       14.0070           0
   10358 QQQ  648  NMP  C3   CG3C52    -0.077000       12.0110           0
   10359 QQQ  648  NMP  H4   HGA2       0.090000        1.0080           0
   10360 QQQ  648  NMP  H5   HGA2       0.090000        1.0080           0
   10361 QQQ  648  NMP  C4   CG3C52    -0.233000       12.0110           0
   10362 QQQ  648  NMP  H6   HGA2       0.090000        1.0080           0
   10363 QQQ  648  NMP  H7   HGA2       0.090000        1.0080           0
   10364 QQQ  648  NMP  C5   CG3C52    -0.027000       12.0110           0
   10365 QQQ  648  NMP  H8   HGA2       0.090000        1.0080           0
   10366 QQQ  648  NMP  H9   HGA2       0.090000        1.0080           0
   10367 QQQ  648  NMP  C6   CG2R53     0.286000       12.0110           0
   10368 QQQ  648  NMP  O7   OG2D1     -0.500000       15.9990           0
   10369 QQQ  649  NMP  C1   CG331     -0.161000       12.0110           0
   10370 QQQ  649  NMP  H1   HGA3       0.090000        1.0080           0
   10371 QQQ  649  NMP  H2   HGA3       0.090000        1.0080           0
   10372 QQQ  649  NMP  H3   HGA3       0.090000        1.0080           0
   10373 QQQ  649  NMP  N2   NG2R53    -0.098000       14.0070           0
   10374 QQQ  649  NMP  C3   CG3C52    -0.077000       12.0110           0
   10375 QQQ  649  NMP  H4   HGA2       0.090000        1.0080           0
   10376 QQQ  649  NMP  H5   HGA2       0.090000        1.0080           0
   10377 QQQ  649  NMP  C4   CG3C52    -0.233000       12.0110           0
   10378 QQQ  649  NMP  H6   HGA2       0.090000        1.0080           0
   10379 QQQ  649  NMP  H7   HGA2       0.090000        1.0080           0
   10380 QQQ  649  NMP  C5   CG3C52    -0.027000       12.0110           0
   10381 QQQ  649  NMP  H8   HGA2       0.090000        1.0080           0
   10382 QQQ  649  NMP  H9   HGA2       0.090000        1.0080           0
   10383 QQQ  649  NMP  C6   CG2R53     0.286000       12.0110           0
   10384 QQQ  649  NMP  O7   OG2D1     -0.500000       15.9990           0
   10385 QQQ  650  NMP  C1   CG331     -0.161000       12.0110           0
   10386 QQQ  650  NMP  H1   HGA3       0.090000        1.0080           0
   10387 QQQ  650  NMP  H2   HGA3       0.090000        1.0080           0
   10388 QQQ  650  NMP  H3   HGA3       0.090000        1.0080           0
   10389 QQQ  650  NMP  N2   NG2R53    -0.098000       14.0070           0
   10390 QQQ  650  NMP  C3   CG3C52    -0.077000       12.0110           0
   10391 QQQ  650  NMP  H4   HGA2       0.090000        1.0080           0
   10392 QQQ  650  NMP  H5   HGA2       0.090000        1.0080           0
   10393 QQQ  650  NMP  C4   CG3C52    -0.233000       12.0110           0
   10394 QQQ  650  NMP  H6   HGA2       0.090000        1.0080           0
   10395 QQQ  650  NMP  H7   HGA2       0.090000        1.0080           0
   10396 QQQ  650  NMP  C5   CG3C52    -0.027000       12.0110           0
   10397 QQQ  650  NMP  H8   HGA2       0.090000        1.0080           0
   10398 QQQ  650  NMP  H9   HGA2       0.090000        1.0080           0
   10399 QQQ  650  NMP  C6   CG2R53     0.286000       12.0110           0
   10400 QQQ  650  NMP  O7   OG2D1     -0.500000       15.9990           0
   10401 QQQ  651  NMP  C1   CG331     -0.161000       12.0110           0
   10402 QQQ  651  NMP  H1   HGA3       0.090000        1.0080           0
   10403 QQQ  651  NMP  H2   HGA3       0.090000        1.0080           0
   10404 QQQ  651  NMP  H3   HGA3       0.090000        1.0080           0
   10405 QQQ  651  NMP  N2   NG2R53    -0.098000       14.0070           0
   10406 QQQ  651  NMP  C3   CG3C52    -0.077000       12.0110           0
   10407 QQQ  651  NMP  H4   HGA2       0.090000        1.0080           0
   10408 QQQ  651  NMP  H5   HGA2       0.090000        1.0080           0
   10409 QQQ  651  NMP  C4   CG3C52    -0.233000       12.0110           0
   10410 QQQ  651  NMP  H6   HGA2       0.090000        1.0080           0
   10411 QQQ  651  NMP  H7   HGA2       0.090000        1.0080           0
   10412 QQQ  651  NMP  C5   CG3C52    -0.027000       12.0110           0
   10413 QQQ  651  NMP  H8   HGA2       0.090000        1.0080           0
   10414 QQQ  651  NMP  H9   HGA2       0.090000        1.0080           0
   10415 QQQ  651  NMP  C6   CG2R53     0.286000       12.0110           0
   10416 QQQ  651  NMP  O7   OG2D1     -0.500000       15.9990           0
   10417 QQQ  652  NMP  C1   CG331     -0.161000       12.0110           0
   10418 QQQ  652  NMP  H1   HGA3       0.090000        1.0080           0
   10419 QQQ  652  NMP  H2   HGA3       0.090000        1.0080           0
   10420 QQQ  652  NMP  H3   HGA3       0.090000        1.0080           0
   10421 QQQ  652  NMP  N2   NG2R53    -0.098000       14.0070           0
   10422 QQQ  652  NMP  C3   CG3C52    -0.077000       12.0110           0
   10423 QQQ  652  NMP  H4   HGA2       0.090000        1.0080           0
   10424 QQQ  652  NMP  H5   HGA2       0.090000        1.0080           0
   10425 QQQ  652  NMP  C4   CG3C52    -0.233000       12.0110           0
   10426 QQQ  652  NMP  H6   HGA2       0.090000        1.0080           0
   10427 QQQ  652  NMP  H7   HGA2       0.090000        1.0080           0
   10428 QQQ  652  NMP  C5   CG3C52    -0.027000       12.0110           0
   10429 QQQ  652  NMP  H8   HGA2       0.090000        1.0080           0
   10430 QQQ  652  NMP  H9   HGA2       0.090000        1.0080           0
   10431 QQQ  652  NMP  C6   CG2R53     0.286000       12.0110           0
   10432 QQQ  652  NMP  O7   OG2D1     -0.500000       15.9990           0
   10433 QQQ  653  NMP  C1   CG331     -0.161000       12.0110           0
   10434 QQQ  653  NMP  H1   HGA3       0.090000        1.0080           0
   10435 QQQ  653  NMP  H2   HGA3       0.090000        1.0080           0
   10436 QQQ  653  NMP  H3   HGA3       0.090000        1.0080           0
   10437 QQQ  653  NMP  N2   NG2R53    -0.098000       14.0070           0
   10438 QQQ  653  NMP  C3   CG3C52    -0.077000       12.0110           0
   10439 QQQ  653  NMP  H4   HGA2       0.090000        1.0080           0
   10440 QQQ  653  NMP  H5   HGA2       0.090000        1.0080           0
   10441 QQQ  653  NMP  C4   CG3C52    -0.233000       12.0110           0
   10442 QQQ  653  NMP  H6   HGA2       0.090000        1.0080           0
   10443 QQQ  653  NMP  H7   HGA2       0.090000        1.0080           0
   10444 QQQ  653  NMP  C5   CG3C52    -0.027000       12.0110           0
   10445 QQQ  653  NMP  H8   HGA2       0.090000        1.0080           0
   10446 QQQ  653  NMP  H9   HGA2       0.090000        1.0080           0
   10447 QQQ  653  NMP  C6   CG2R53     0.286000       12.0110           0
   10448 QQQ  653  NMP  O7   OG2D1     -0.500000       15.9990           0
   10449 QQQ  654  NMP  C1   CG331     -0.161000       12.0110           0
   10450 QQQ  654  NMP  H1   HGA3       0.090000        1.0080           0
   10451 QQQ  654  NMP  H2   HGA3       0.090000        1.0080           0
   10452 QQQ  654  NMP  H3   HGA3       0.090000        1.0080           0
   10453 QQQ  654  NMP  N2   NG2R53    -0.098000       14.0070           0
   10454 QQQ  654  NMP  C3   CG3C52    -0.077000       12.0110           0
   10455 QQQ  654  NMP  H4   HGA2       0.090000        1.0080           0
   10456 QQQ  654  NMP  H5   HGA2       0.090000        1.0080           0
   10457 QQQ  654  NMP  C4   CG3C52    -0.233000       12.0110           0
   10458 QQQ  654  NMP  H6   HGA2       0.090000        1.0080           0
   10459 QQQ  654  NMP  H7   HGA2       0.090000        1.0080           0
   10460 QQQ  654  NMP  C5   CG3C52    -0.027000       12.0110           0
   10461 QQQ  654  NMP  H8   HGA2       0.090000        1.0080           0
   10462 QQQ  654  NMP  H9   HGA2       0.090000        1.0080           0
   10463 QQQ  654  NMP  C6   CG2R53     0.286000       12.0110           0
   10464 QQQ  654  NMP  O7   OG2D1     -0.500000       15.9990           0
   10465 QQQ  655  NMP  C1   CG331     -0.161000       12.0110           0
   10466 QQQ  655  NMP  H1   HGA3       0.090000        1.0080           0
   10467 QQQ  655  NMP  H2   HGA3       0.090000        1.0080           0
   10468 QQQ  655  NMP  H3   HGA3       0.090000        1.0080           0
   10469 QQQ  655  NMP  N2   NG2R53    -0.098000       14.0070           0
   10470 QQQ  655  NMP  C3   CG3C52    -0.077000       12.0110           0
   10471 QQQ  655  NMP  H4   HGA2       0.090000        1.0080           0
   10472 QQQ  655  NMP  H5   HGA2       0.090000        1.0080           0
   10473 QQQ  655  NMP  C4   CG3C52    -0.233000       12.0110           0
   10474 QQQ  655  NMP  H6   HGA2       0.090000        1.0080           0
   10475 QQQ  655  NMP  H7   HGA2       0.090000        1.0080           0
   10476 QQQ  655  NMP  C5   CG3C52    -0.027000       12.0110           0
   10477 QQQ  655  NMP  H8   HGA2       0.090000        1.0080           0
   10478 QQQ  655  NMP  H9   HGA2       0.090000        1.0080           0
   10479 QQQ  655  NMP  C6   CG2R53     0.286000       12.0110           0
   10480 QQQ  655  NMP  O7   OG2D1     -0.500000       15.9990           0
   10481 QQQ  656  NMP  C1   CG331     -0.161000       12.0110           0
   10482 QQQ  656  NMP  H1   HGA3       0.090000        1.0080           0
   10483 QQQ  656  NMP  H2   HGA3       0.090000        1.0080           0
   10484 QQQ  656  NMP  H3   HGA3       0.090000        1.0080           0
   10485 QQQ  656  NMP  N2   NG2R53    -0.098000       14.0070           0
   10486 QQQ  656  NMP  C3   CG3C52    -0.077000       12.0110           0
   10487 QQQ  656  NMP  H4   HGA2       0.090000        1.0080           0
   10488 QQQ  656  NMP  H5   HGA2       0.090000        1.0080           0
   10489 QQQ  656  NMP  C4   CG3C52    -0.233000       12.0110           0
   10490 QQQ  656  NMP  H6   HGA2       0.090000        1.0080           0
   10491 QQQ  656  NMP  H7   HGA2       0.090000        1.0080           0
   10492 QQQ  656  NMP  C5   CG3C52    -0.027000       12.0110           0
   10493 QQQ  656  NMP  H8   HGA2       0.090000        1.0080           0
   10494 QQQ  656  NMP  H9   HGA2       0.090000        1.0080           0
   10495 QQQ  656  NMP  C6   CG2R53     0.286000       12.0110           0
   10496 QQQ  656  NMP  O7   OG2D1     -0.500000       15.9990           0
   10497 QQQ  657  NMP  C1   CG331     -0.161000       12.0110           0
   10498 QQQ  657  NMP  H1   HGA3       0.090000        1.0080           0
   10499 QQQ  657  NMP  H2   HGA3       0.090000        1.0080           0
   10500 QQQ  657  NMP  H3   HGA3       0.090000        1.0080           0
   10501 QQQ  657  NMP  N2   NG2R53    -0.098000       14.0070           0
   10502 QQQ  657  NMP  C3   CG3C52    -0.077000       12.0110           0
   10503 QQQ  657  NMP  H4   HGA2       0.090000        1.0080           0
   10504 QQQ  657  NMP  H5   HGA2       0.090000        1.0080           0
   10505 QQQ  657  NMP  C4   CG3C52    -0.233000       12.0110           0
   10506 QQQ  657  NMP  H6   HGA2       0.090000        1.0080           0
   10507 QQQ  657  NMP  H7   HGA2       0.090000        1.0080           0
   10508 QQQ  657  NMP  C5   CG3C52    -0.027000       12.0110           0
   10509 QQQ  657  NMP  H8   HGA2       0.090000        1.0080           0
   10510 QQQ  657  NMP  H9   HGA2       0.090000        1.0080           0
   10511 QQQ  657  NMP  C6   CG2R53     0.286000       12.0110           0
   10512 QQQ  657  NMP  O7   OG2D1     -0.500000       15.9990           0
   10513 QQQ  658  NMP  C1   CG331     -0.161000       12.0110           0
   10514 QQQ  658  NMP  H1   HGA3       0.090000        1.0080           0
   10515 QQQ  658  NMP  H2   HGA3       0.090000        1.0080           0
   10516 QQQ  658  NMP  H3   HGA3       0.090000        1.0080           0
   10517 QQQ  658  NMP  N2   NG2R53    -0.098000       14.0070           0
   10518 QQQ  658  NMP  C3   CG3C52    -0.077000       12.0110           0
   10519 QQQ  658  NMP  H4   HGA2       0.090000        1.0080           0
   10520 QQQ  658  NMP  H5   HGA2       0.090000        1.0080           0
   10521 QQQ  658  NMP  C4   CG3C52    -0.233000       12.0110           0
   10522 QQQ  658  NMP  H6   HGA2       0.090000        1.0080           0
   10523 QQQ  658  NMP  H7   HGA2       0.090000        1.0080           0
   10524 QQQ  658  NMP  C5   CG3C52    -0.027000       12.0110           0
   10525 QQQ  658  NMP  H8   HGA2       0.090000        1.0080           0
   10526 QQQ  658  NMP  H9   HGA2       0.090000        1.0080           0
   10527 QQQ  658  NMP  C6   CG2R53     0.286000       12.0110           0
   10528 QQQ  658  NMP  O7   OG2D1     -0.500000       15.9990           0
   10529 QQQ  659  NMP  C1   CG331     -0.161000       12.0110           0
   10530 QQQ  659  NMP  H1   HGA3       0.090000        1.0080           0
   10531 QQQ  659  NMP  H2   HGA3       0.090000        1.0080           0
   10532 QQQ  659  NMP  H3   HGA3       0.090000        1.0080           0
   10533 QQQ  659  NMP  N2   NG2R53    -0.098000       14.0070           0
   10534 QQQ  659  NMP  C3   CG3C52    -0.077000       12.0110           0
   10535 QQQ  659  NMP  H4   HGA2       0.090000        1.0080           0
   10536 QQQ  659  NMP  H5   HGA2       0.090000        1.0080           0
   10537 QQQ  659  NMP  C4   CG3C52    -0.233000       12.0110           0
   10538 QQQ  659  NMP  H6   HGA2       0.090000        1.0080           0
   10539 QQQ  659  NMP  H7   HGA2       0.090000        1.0080           0
   10540 QQQ  659  NMP  C5   CG3C52    -0.027000       12.0110           0
   10541 QQQ  659  NMP  H8   HGA2       0.090000        1.0080           0
   10542 QQQ  659  NMP  H9   HGA2       0.090000        1.0080           0
   10543 QQQ  659  NMP  C6   CG2R53     0.286000       12.0110           0
   10544 QQQ  659  NMP  O7   OG2D1     -0.500000       15.9990           0
   10545 QQQ  660  NMP  C1   CG331     -0.161000       12.0110           0
   10546 QQQ  660  NMP  H1   HGA3       0.090000        1.0080           0
   10547 QQQ  660  NMP  H2   HGA3       0.090000        1.0080           0
   10548 QQQ  660  NMP  H3   HGA3       0.090000        1.0080           0
   10549 QQQ  660  NMP  N2   NG2R53    -0.098000       14.0070           0
   10550 QQQ  660  NMP  C3   CG3C52    -0.077000       12.0110           0
   10551 QQQ  660  NMP  H4   HGA2       0.090000        1.0080           0
   10552 QQQ  660  NMP  H5   HGA2       0.090000        1.0080           0
   10553 QQQ  660  NMP  C4   CG3C52    -0.233000       12.0110           0
   10554 QQQ  660  NMP  H6   HGA2       0.090000        1.0080           0
   10555 QQQ  660  NMP  H7   HGA2       0.090000        1.0080           0
   10556 QQQ  660  NMP  C5   CG3C52    -0.027000       12.0110           0
   10557 QQQ  660  NMP  H8   HGA2       0.090000        1.0080           0
   10558 QQQ  660  NMP  H9   HGA2       0.090000        1.0080           0
   10559 QQQ  660  NMP  C6   CG2R53     0.286000       12.0110           0
   10560 QQQ  660  NMP  O7   OG2D1     -0.500000       15.9990           0
   10561 QQQ  661  NMP  C1   CG331     -0.161000       12.0110           0
   10562 QQQ  661  NMP  H1   HGA3       0.090000        1.0080           0
   10563 QQQ  661  NMP  H2   HGA3       0.090000        1.0080           0
   10564 QQQ  661  NMP  H3   HGA3       0.090000        1.0080           0
   10565 QQQ  661  NMP  N2   NG2R53    -0.098000       14.0070           0
   10566 QQQ  661  NMP  C3   CG3C52    -0.077000       12.0110           0
   10567 QQQ  661  NMP  H4   HGA2       0.090000        1.0080           0
   10568 QQQ  661  NMP  H5   HGA2       0.090000        1.0080           0
   10569 QQQ  661  NMP  C4   CG3C52    -0.233000       12.0110           0
   10570 QQQ  661  NMP  H6   HGA2       0.090000        1.0080           0
   10571 QQQ  661  NMP  H7   HGA2       0.090000        1.0080           0
   10572 QQQ  661  NMP  C5   CG3C52    -0.027000       12.0110           0
   10573 QQQ  661  NMP  H8   HGA2       0.090000        1.0080           0
   10574 QQQ  661  NMP  H9   HGA2       0.090000        1.0080           0
   10575 QQQ  661  NMP  C6   CG2R53     0.286000       12.0110           0
   10576 QQQ  661  NMP  O7   OG2D1     -0.500000       15.9990           0
   10577 QQQ  662  NMP  C1   CG331     -0.161000       12.0110           0
   10578 QQQ  662  NMP  H1   HGA3       0.090000        1.0080           0
   10579 QQQ  662  NMP  H2   HGA3       0.090000        1.0080           0
   10580 QQQ  662  NMP  H3   HGA3       0.090000        1.0080           0
   10581 QQQ  662  NMP  N2   NG2R53    -0.098000       14.0070           0
   10582 QQQ  662  NMP  C3   CG3C52    -0.077000       12.0110           0
   10583 QQQ  662  NMP  H4   HGA2       0.090000        1.0080           0
   10584 QQQ  662  NMP  H5   HGA2       0.090000        1.0080           0
   10585 QQQ  662  NMP  C4   CG3C52    -0.233000       12.0110           0
   10586 QQQ  662  NMP  H6   HGA2       0.090000        1.0080           0
   10587 QQQ  662  NMP  H7   HGA2       0.090000        1.0080           0
   10588 QQQ  662  NMP  C5   CG3C52    -0.027000       12.0110           0
   10589 QQQ  662  NMP  H8   HGA2       0.090000        1.0080           0
   10590 QQQ  662  NMP  H9   HGA2       0.090000        1.0080           0
   10591 QQQ  662  NMP  C6   CG2R53     0.286000       12.0110           0
   10592 QQQ  662  NMP  O7   OG2D1     -0.500000       15.9990           0
   10593 QQQ  663  NMP  C1   CG331     -0.161000       12.0110           0
   10594 QQQ  663  NMP  H1   HGA3       0.090000        1.0080           0
   10595 QQQ  663  NMP  H2   HGA3       0.090000        1.0080           0
   10596 QQQ  663  NMP  H3   HGA3       0.090000        1.0080           0
   10597 QQQ  663  NMP  N2   NG2R53    -0.098000       14.0070           0
   10598 QQQ  663  NMP  C3   CG3C52    -0.077000       12.0110           0
   10599 QQQ  663  NMP  H4   HGA2       0.090000        1.0080           0
   10600 QQQ  663  NMP  H5   HGA2       0.090000        1.0080           0
   10601 QQQ  663  NMP  C4   CG3C52    -0.233000       12.0110           0
   10602 QQQ  663  NMP  H6   HGA2       0.090000        1.0080           0
   10603 QQQ  663  NMP  H7   HGA2       0.090000        1.0080           0
   10604 QQQ  663  NMP  C5   CG3C52    -0.027000       12.0110           0
   10605 QQQ  663  NMP  H8   HGA2       0.090000        1.0080           0
   10606 QQQ  663  NMP  H9   HGA2       0.090000        1.0080           0
   10607 QQQ  663  NMP  C6   CG2R53     0.286000       12.0110           0
   10608 QQQ  663  NMP  O7   OG2D1     -0.500000       15.9990           0
   10609 QQQ  664  NMP  C1   CG331     -0.161000       12.0110           0
   10610 QQQ  664  NMP  H1   HGA3       0.090000        1.0080           0
   10611 QQQ  664  NMP  H2   HGA3       0.090000        1.0080           0
   10612 QQQ  664  NMP  H3   HGA3       0.090000        1.0080           0
   10613 QQQ  664  NMP  N2   NG2R53    -0.098000       14.0070           0
   10614 QQQ  664  NMP  C3   CG3C52    -0.077000       12.0110           0
   10615 QQQ  664  NMP  H4   HGA2       0.090000        1.0080           0
   10616 QQQ  664  NMP  H5   HGA2       0.090000        1.0080           0
   10617 QQQ  664  NMP  C4   CG3C52    -0.233000       12.0110           0
   10618 QQQ  664  NMP  H6   HGA2       0.090000        1.0080           0
   10619 QQQ  664  NMP  H7   HGA2       0.090000        1.0080           0
   10620 QQQ  664  NMP  C5   CG3C52    -0.027000       12.0110           0
   10621 QQQ  664  NMP  H8   HGA2       0.090000        1.0080           0
   10622 QQQ  664  NMP  H9   HGA2       0.090000        1.0080           0
   10623 QQQ  664  NMP  C6   CG2R53     0.286000       12.0110           0
   10624 QQQ  664  NMP  O7   OG2D1     -0.500000       15.9990           0
   10625 QQQ  665  NMP  C1   CG331     -0.161000       12.0110           0
   10626 QQQ  665  NMP  H1   HGA3       0.090000        1.0080           0
   10627 QQQ  665  NMP  H2   HGA3       0.090000        1.0080           0
   10628 QQQ  665  NMP  H3   HGA3       0.090000        1.0080           0
   10629 QQQ  665  NMP  N2   NG2R53    -0.098000       14.0070           0
   10630 QQQ  665  NMP  C3   CG3C52    -0.077000       12.0110           0
   10631 QQQ  665  NMP  H4   HGA2       0.090000        1.0080           0
   10632 QQQ  665  NMP  H5   HGA2       0.090000        1.0080           0
   10633 QQQ  665  NMP  C4   CG3C52    -0.233000       12.0110           0
   10634 QQQ  665  NMP  H6   HGA2       0.090000        1.0080           0
   10635 QQQ  665  NMP  H7   HGA2       0.090000        1.0080           0
   10636 QQQ  665  NMP  C5   CG3C52    -0.027000       12.0110           0
   10637 QQQ  665  NMP  H8   HGA2       0.090000        1.0080           0
   10638 QQQ  665  NMP  H9   HGA2       0.090000        1.0080           0
   10639 QQQ  665  NMP  C6   CG2R53     0.286000       12.0110           0
   10640 QQQ  665  NMP  O7   OG2D1     -0.500000       15.9990           0
   10641 QQQ  666  NMP  C1   CG331     -0.161000       12.0110           0
   10642 QQQ  666  NMP  H1   HGA3       0.090000        1.0080           0
   10643 QQQ  666  NMP  H2   HGA3       0.090000        1.0080           0
   10644 QQQ  666  NMP  H3   HGA3       0.090000        1.0080           0
   10645 QQQ  666  NMP  N2   NG2R53    -0.098000       14.0070           0
   10646 QQQ  666  NMP  C3   CG3C52    -0.077000       12.0110           0
   10647 QQQ  666  NMP  H4   HGA2       0.090000        1.0080           0
   10648 QQQ  666  NMP  H5   HGA2       0.090000        1.0080           0
   10649 QQQ  666  NMP  C4   CG3C52    -0.233000       12.0110           0
   10650 QQQ  666  NMP  H6   HGA2       0.090000        1.0080           0
   10651 QQQ  666  NMP  H7   HGA2       0.090000        1.0080           0
   10652 QQQ  666  NMP  C5   CG3C52    -0.027000       12.0110           0
   10653 QQQ  666  NMP  H8   HGA2       0.090000        1.0080           0
   10654 QQQ  666  NMP  H9   HGA2       0.090000        1.0080           0
   10655 QQQ  666  NMP  C6   CG2R53     0.286000       12.0110           0
   10656 QQQ  666  NMP  O7   OG2D1     -0.500000       15.9990           0
   10657 QQQ  667  NMP  C1   CG331     -0.161000       12.0110           0
   10658 QQQ  667  NMP  H1   HGA3       0.090000        1.0080           0
   10659 QQQ  667  NMP  H2   HGA3       0.090000        1.0080           0
   10660 QQQ  667  NMP  H3   HGA3       0.090000        1.0080           0
   10661 QQQ  667  NMP  N2   NG2R53    -0.098000       14.0070           0
   10662 QQQ  667  NMP  C3   CG3C52    -0.077000       12.0110           0
   10663 QQQ  667  NMP  H4   HGA2       0.090000        1.0080           0
   10664 QQQ  667  NMP  H5   HGA2       0.090000        1.0080           0
   10665 QQQ  667  NMP  C4   CG3C52    -0.233000       12.0110           0
   10666 QQQ  667  NMP  H6   HGA2       0.090000        1.0080           0
   10667 QQQ  667  NMP  H7   HGA2       0.090000        1.0080           0
   10668 QQQ  667  NMP  C5   CG3C52    -0.027000       12.0110           0
   10669 QQQ  667  NMP  H8   HGA2       0.090000        1.0080           0
   10670 QQQ  667  NMP  H9   HGA2       0.090000        1.0080           0
   10671 QQQ  667  NMP  C6   CG2R53     0.286000       12.0110           0
   10672 QQQ  667  NMP  O7   OG2D1     -0.500000       15.9990           0
   10673 QQQ  668  NMP  C1   CG331     -0.161000       12.0110           0
   10674 QQQ  668  NMP  H1   HGA3       0.090000        1.0080           0
   10675 QQQ  668  NMP  H2   HGA3       0.090000        1.0080           0
   10676 QQQ  668  NMP  H3   HGA3       0.090000        1.0080           0
   10677 QQQ  668  NMP  N2   NG2R53    -0.098000       14.0070           0
   10678 QQQ  668  NMP  C3   CG3C52    -0.077000       12.0110           0
   10679 QQQ  668  NMP  H4   HGA2       0.090000        1.0080           0
   10680 QQQ  668  NMP  H5   HGA2       0.090000        1.0080           0
   10681 QQQ  668  NMP  C4   CG3C52    -0.233000       12.0110           0
   10682 QQQ  668  NMP  H6   HGA2       0.090000        1.0080           0
   10683 QQQ  668  NMP  H7   HGA2       0.090000        1.0080           0
   10684 QQQ  668  NMP  C5   CG3C52    -0.027000       12.0110           0
   10685 QQQ  668  NMP  H8   HGA2       0.090000        1.0080           0
   10686 QQQ  668  NMP  H9   HGA2       0.090000        1.0080           0
   10687 QQQ  668  NMP  C6   CG2R53     0.286000       12.0110           0
   10688 QQQ  668  NMP  O7   OG2D1     -0.500000       15.9990           0
   10689 QQQ  669  NMP  C1   CG331     -0.161000       12.0110           0
   10690 QQQ  669  NMP  H1   HGA3       0.090000        1.0080           0
   10691 QQQ  669  NMP  H2   HGA3       0.090000        1.0080           0
   10692 QQQ  669  NMP  H3   HGA3       0.090000        1.0080           0
   10693 QQQ  669  NMP  N2   NG2R53    -0.098000       14.0070           0
   10694 QQQ  669  NMP  C3   CG3C52    -0.077000       12.0110           0
   10695 QQQ  669  NMP  H4   HGA2       0.090000        1.0080           0
   10696 QQQ  669  NMP  H5   HGA2       0.090000        1.0080           0
   10697 QQQ  669  NMP  C4   CG3C52    -0.233000       12.0110           0
   10698 QQQ  669  NMP  H6   HGA2       0.090000        1.0080           0
   10699 QQQ  669  NMP  H7   HGA2       0.090000        1.0080           0
   10700 QQQ  669  NMP  C5   CG3C52    -0.027000       12.0110           0
   10701 QQQ  669  NMP  H8   HGA2       0.090000        1.0080           0
   10702 QQQ  669  NMP  H9   HGA2       0.090000        1.0080           0
   10703 QQQ  669  NMP  C6   CG2R53     0.286000       12.0110           0
   10704 QQQ  669  NMP  O7   OG2D1     -0.500000       15.9990           0
   10705 QQQ  670  NMP  C1   CG331     -0.161000       12.0110           0
   10706 QQQ  670  NMP  H1   HGA3       0.090000        1.0080           0
   10707 QQQ  670  NMP  H2   HGA3       0.090000        1.0080           0
   10708 QQQ  670  NMP  H3   HGA3       0.090000        1.0080           0
   10709 QQQ  670  NMP  N2   NG2R53    -0.098000       14.0070           0
   10710 QQQ  670  NMP  C3   CG3C52    -0.077000       12.0110           0
   10711 QQQ  670  NMP  H4   HGA2       0.090000        1.0080           0
   10712 QQQ  670  NMP  H5   HGA2       0.090000        1.0080           0
   10713 QQQ  670  NMP  C4   CG3C52    -0.233000       12.0110           0
   10714 QQQ  670  NMP  H6   HGA2       0.090000        1.0080           0
   10715 QQQ  670  NMP  H7   HGA2       0.090000        1.0080           0
   10716 QQQ  670  NMP  C5   CG3C52    -0.027000       12.0110           0
   10717 QQQ  670  NMP  H8   HGA2       0.090000        1.0080           0
   10718 QQQ  670  NMP  H9   HGA2       0.090000        1.0080           0
   10719 QQQ  670  NMP  C6   CG2R53     0.286000       12.0110           0
   10720 QQQ  670  NMP  O7   OG2D1     -0.500000       15.9990           0
   10721 QQQ  671  NMP  C1   CG331     -0.161000       12.0110           0
   10722 QQQ  671  NMP  H1   HGA3       0.090000        1.0080           0
   10723 QQQ  671  NMP  H2   HGA3       0.090000        1.0080           0
   10724 QQQ  671  NMP  H3   HGA3       0.090000        1.0080           0
   10725 QQQ  671  NMP  N2   NG2R53    -0.098000       14.0070           0
   10726 QQQ  671  NMP  C3   CG3C52    -0.077000       12.0110           0
   10727 QQQ  671  NMP  H4   HGA2       0.090000        1.0080           0
   10728 QQQ  671  NMP  H5   HGA2       0.090000        1.0080           0
   10729 QQQ  671  NMP  C4   CG3C52    -0.233000       12.0110           0
   10730 QQQ  671  NMP  H6   HGA2       0.090000        1.0080           0
   10731 QQQ  671  NMP  H7   HGA2       0.090000        1.0080           0
   10732 QQQ  671  NMP  C5   CG3C52    -0.027000       12.0110           0
   10733 QQQ  671  NMP  H8   HGA2       0.090000        1.0080           0
   10734 QQQ  671  NMP  H9   HGA2       0.090000        1.0080           0
   10735 QQQ  671  NMP  C6   CG2R53     0.286000       12.0110           0
   10736 QQQ  671  NMP  O7   OG2D1     -0.500000       15.9990           0
   10737 QQQ  672  NMP  C1   CG331     -0.161000       12.0110           0
   10738 QQQ  672  NMP  H1   HGA3       0.090000        1.0080           0
   10739 QQQ  672  NMP  H2   HGA3       0.090000        1.0080           0
   10740 QQQ  672  NMP  H3   HGA3       0.090000        1.0080           0
   10741 QQQ  672  NMP  N2   NG2R53    -0.098000       14.0070           0
   10742 QQQ  672  NMP  C3   CG3C52    -0.077000       12.0110           0
   10743 QQQ  672  NMP  H4   HGA2       0.090000        1.0080           0
   10744 QQQ  672  NMP  H5   HGA2       0.090000        1.0080           0
   10745 QQQ  672  NMP  C4   CG3C52    -0.233000       12.0110           0
   10746 QQQ  672  NMP  H6   HGA2       0.090000        1.0080           0
   10747 QQQ  672  NMP  H7   HGA2       0.090000        1.0080           0
   10748 QQQ  672  NMP  C5   CG3C52    -0.027000       12.0110           0
   10749 QQQ  672  NMP  H8   HGA2       0.090000        1.0080           0
   10750 QQQ  672  NMP  H9   HGA2       0.090000        1.0080           0
   10751 QQQ  672  NMP  C6   CG2R53     0.286000       12.0110           0
   10752 QQQ  672  NMP  O7   OG2D1     -0.500000       15.9990           0
   10753 QQQ  673  NMP  C1   CG331     -0.161000       12.0110           0
   10754 QQQ  673  NMP  H1   HGA3       0.090000        1.0080           0
   10755 QQQ  673  NMP  H2   HGA3       0.090000        1.0080           0
   10756 QQQ  673  NMP  H3   HGA3       0.090000        1.0080           0
   10757 QQQ  673  NMP  N2   NG2R53    -0.098000       14.0070           0
   10758 QQQ  673  NMP  C3   CG3C52    -0.077000       12.0110           0
   10759 QQQ  673  NMP  H4   HGA2       0.090000        1.0080           0
   10760 QQQ  673  NMP  H5   HGA2       0.090000        1.0080           0
   10761 QQQ  673  NMP  C4   CG3C52    -0.233000       12.0110           0
   10762 QQQ  673  NMP  H6   HGA2       0.090000        1.0080           0
   10763 QQQ  673  NMP  H7   HGA2       0.090000        1.0080           0
   10764 QQQ  673  NMP  C5   CG3C52    -0.027000       12.0110           0
   10765 QQQ  673  NMP  H8   HGA2       0.090000        1.0080           0
   10766 QQQ  673  NMP  H9   HGA2       0.090000        1.0080           0
   10767 QQQ  673  NMP  C6   CG2R53     0.286000       12.0110           0
   10768 QQQ  673  NMP  O7   OG2D1     -0.500000       15.9990           0
   10769 QQQ  674  NMP  C1   CG331     -0.161000       12.0110           0
   10770 QQQ  674  NMP  H1   HGA3       0.090000        1.0080           0
   10771 QQQ  674  NMP  H2   HGA3       0.090000        1.0080           0
   10772 QQQ  674  NMP  H3   HGA3       0.090000        1.0080           0
   10773 QQQ  674  NMP  N2   NG2R53    -0.098000       14.0070           0
   10774 QQQ  674  NMP  C3   CG3C52    -0.077000       12.0110           0
   10775 QQQ  674  NMP  H4   HGA2       0.090000        1.0080           0
   10776 QQQ  674  NMP  H5   HGA2       0.090000        1.0080           0
   10777 QQQ  674  NMP  C4   CG3C52    -0.233000       12.0110           0
   10778 QQQ  674  NMP  H6   HGA2       0.090000        1.0080           0
   10779 QQQ  674  NMP  H7   HGA2       0.090000        1.0080           0
   10780 QQQ  674  NMP  C5   CG3C52    -0.027000       12.0110           0
   10781 QQQ  674  NMP  H8   HGA2       0.090000        1.0080           0
   10782 QQQ  674  NMP  H9   HGA2       0.090000        1.0080           0
   10783 QQQ  674  NMP  C6   CG2R53     0.286000       12.0110           0
   10784 QQQ  674  NMP  O7   OG2D1     -0.500000       15.9990           0
   10785 QQQ  675  NMP  C1   CG331     -0.161000       12.0110           0
   10786 QQQ  675  NMP  H1   HGA3       0.090000        1.0080           0
   10787 QQQ  675  NMP  H2   HGA3       0.090000        1.0080           0
   10788 QQQ  675  NMP  H3   HGA3       0.090000        1.0080           0
   10789 QQQ  675  NMP  N2   NG2R53    -0.098000       14.0070           0
   10790 QQQ  675  NMP  C3   CG3C52    -0.077000       12.0110           0
   10791 QQQ  675  NMP  H4   HGA2       0.090000        1.0080           0
   10792 QQQ  675  NMP  H5   HGA2       0.090000        1.0080           0
   10793 QQQ  675  NMP  C4   CG3C52    -0.233000       12.0110           0
   10794 QQQ  675  NMP  H6   HGA2       0.090000        1.0080           0
   10795 QQQ  675  NMP  H7   HGA2       0.090000        1.0080           0
   10796 QQQ  675  NMP  C5   CG3C52    -0.027000       12.0110           0
   10797 QQQ  675  NMP  H8   HGA2       0.090000        1.0080           0
   10798 QQQ  675  NMP  H9   HGA2       0.090000        1.0080           0
   10799 QQQ  675  NMP  C6   CG2R53     0.286000       12.0110           0
   10800 QQQ  675  NMP  O7   OG2D1     -0.500000       15.9990           0
   10801 QQQ  676  NMP  C1   CG331     -0.161000       12.0110           0
   10802 QQQ  676  NMP  H1   HGA3       0.090000        1.0080           0
   10803 QQQ  676  NMP  H2   HGA3       0.090000        1.0080           0
   10804 QQQ  676  NMP  H3   HGA3       0.090000        1.0080           0
   10805 QQQ  676  NMP  N2   NG2R53    -0.098000       14.0070           0
   10806 QQQ  676  NMP  C3   CG3C52    -0.077000       12.0110           0
   10807 QQQ  676  NMP  H4   HGA2       0.090000        1.0080           0
   10808 QQQ  676  NMP  H5   HGA2       0.090000        1.0080           0
   10809 QQQ  676  NMP  C4   CG3C52    -0.233000       12.0110           0
   10810 QQQ  676  NMP  H6   HGA2       0.090000        1.0080           0
   10811 QQQ  676  NMP  H7   HGA2       0.090000        1.0080           0
   10812 QQQ  676  NMP  C5   CG3C52    -0.027000       12.0110           0
   10813 QQQ  676  NMP  H8   HGA2       0.090000        1.0080           0
   10814 QQQ  676  NMP  H9   HGA2       0.090000        1.0080           0
   10815 QQQ  676  NMP  C6   CG2R53     0.286000       12.0110           0
   10816 QQQ  676  NMP  O7   OG2D1     -0.500000       15.9990           0
   10817 QQQ  677  NMP  C1   CG331     -0.161000       12.0110           0
   10818 QQQ  677  NMP  H1   HGA3       0.090000        1.0080           0
   10819 QQQ  677  NMP  H2   HGA3       0.090000        1.0080           0
   10820 QQQ  677  NMP  H3   HGA3       0.090000        1.0080           0
   10821 QQQ  677  NMP  N2   NG2R53    -0.098000       14.0070           0
   10822 QQQ  677  NMP  C3   CG3C52    -0.077000       12.0110           0
   10823 QQQ  677  NMP  H4   HGA2       0.090000        1.0080           0
   10824 QQQ  677  NMP  H5   HGA2       0.090000        1.0080           0
   10825 QQQ  677  NMP  C4   CG3C52    -0.233000       12.0110           0
   10826 QQQ  677  NMP  H6   HGA2       0.090000        1.0080           0
   10827 QQQ  677  NMP  H7   HGA2       0.090000        1.0080           0
   10828 QQQ  677  NMP  C5   CG3C52    -0.027000       12.0110           0
   10829 QQQ  677  NMP  H8   HGA2       0.090000        1.0080           0
   10830 QQQ  677  NMP  H9   HGA2       0.090000        1.0080           0
   10831 QQQ  677  NMP  C6   CG2R53     0.286000       12.0110           0
   10832 QQQ  677  NMP  O7   OG2D1     -0.500000       15.9990           0
   10833 QQQ  678  NMP  C1   CG331     -0.161000       12.0110           0
   10834 QQQ  678  NMP  H1   HGA3       0.090000        1.0080           0
   10835 QQQ  678  NMP  H2   HGA3       0.090000        1.0080           0
   10836 QQQ  678  NMP  H3   HGA3       0.090000        1.0080           0
   10837 QQQ  678  NMP  N2   NG2R53    -0.098000       14.0070           0
   10838 QQQ  678  NMP  C3   CG3C52    -0.077000       12.0110           0
   10839 QQQ  678  NMP  H4   HGA2       0.090000        1.0080           0
   10840 QQQ  678  NMP  H5   HGA2       0.090000        1.0080           0
   10841 QQQ  678  NMP  C4   CG3C52    -0.233000       12.0110           0
   10842 QQQ  678  NMP  H6   HGA2       0.090000        1.0080           0
   10843 QQQ  678  NMP  H7   HGA2       0.090000        1.0080           0
   10844 QQQ  678  NMP  C5   CG3C52    -0.027000       12.0110           0
   10845 QQQ  678  NMP  H8   HGA2       0.090000        1.0080           0
   10846 QQQ  678  NMP  H9   HGA2       0.090000        1.0080           0
   10847 QQQ  678  NMP  C6   CG2R53     0.286000       12.0110           0
   10848 QQQ  678  NMP  O7   OG2D1     -0.500000       15.9990           0
   10849 QQQ  679  NMP  C1   CG331     -0.161000       12.0110           0
   10850 QQQ  679  NMP  H1   HGA3       0.090000        1.0080           0
   10851 QQQ  679  NMP  H2   HGA3       0.090000        1.0080           0
   10852 QQQ  679  NMP  H3   HGA3       0.090000        1.0080           0
   10853 QQQ  679  NMP  N2   NG2R53    -0.098000       14.0070           0
   10854 QQQ  679  NMP  C3   CG3C52    -0.077000       12.0110           0
   10855 QQQ  679  NMP  H4   HGA2       0.090000        1.0080           0
   10856 QQQ  679  NMP  H5   HGA2       0.090000        1.0080           0
   10857 QQQ  679  NMP  C4   CG3C52    -0.233000       12.0110           0
   10858 QQQ  679  NMP  H6   HGA2       0.090000        1.0080           0
   10859 QQQ  679  NMP  H7   HGA2       0.090000        1.0080           0
   10860 QQQ  679  NMP  C5   CG3C52    -0.027000       12.0110           0
   10861 QQQ  679  NMP  H8   HGA2       0.090000        1.0080           0
   10862 QQQ  679  NMP  H9   HGA2       0.090000        1.0080           0
   10863 QQQ  679  NMP  C6   CG2R53     0.286000       12.0110           0
   10864 QQQ  679  NMP  O7   OG2D1     -0.500000       15.9990           0
   10865 QQQ  680  NMP  C1   CG331     -0.161000       12.0110           0
   10866 QQQ  680  NMP  H1   HGA3       0.090000        1.0080           0
   10867 QQQ  680  NMP  H2   HGA3       0.090000        1.0080           0
   10868 QQQ  680  NMP  H3   HGA3       0.090000        1.0080           0
   10869 QQQ  680  NMP  N2   NG2R53    -0.098000       14.0070           0
   10870 QQQ  680  NMP  C3   CG3C52    -0.077000       12.0110           0
   10871 QQQ  680  NMP  H4   HGA2       0.090000        1.0080           0
   10872 QQQ  680  NMP  H5   HGA2       0.090000        1.0080           0
   10873 QQQ  680  NMP  C4   CG3C52    -0.233000       12.0110           0
   10874 QQQ  680  NMP  H6   HGA2       0.090000        1.0080           0
   10875 QQQ  680  NMP  H7   HGA2       0.090000        1.0080           0
   10876 QQQ  680  NMP  C5   CG3C52    -0.027000       12.0110           0
   10877 QQQ  680  NMP  H8   HGA2       0.090000        1.0080           0
   10878 QQQ  680  NMP  H9   HGA2       0.090000        1.0080           0
   10879 QQQ  680  NMP  C6   CG2R53     0.286000       12.0110           0
   10880 QQQ  680  NMP  O7   OG2D1     -0.500000       15.9990           0
   10881 QQQ  681  NMP  C1   CG331     -0.161000       12.0110           0
   10882 QQQ  681  NMP  H1   HGA3       0.090000        1.0080           0
   10883 QQQ  681  NMP  H2   HGA3       0.090000        1.0080           0
   10884 QQQ  681  NMP  H3   HGA3       0.090000        1.0080           0
   10885 QQQ  681  NMP  N2   NG2R53    -0.098000       14.0070           0
   10886 QQQ  681  NMP  C3   CG3C52    -0.077000       12.0110           0
   10887 QQQ  681  NMP  H4   HGA2       0.090000        1.0080           0
   10888 QQQ  681  NMP  H5   HGA2       0.090000        1.0080           0
   10889 QQQ  681  NMP  C4   CG3C52    -0.233000       12.0110           0
   10890 QQQ  681  NMP  H6   HGA2       0.090000        1.0080           0
   10891 QQQ  681  NMP  H7   HGA2       0.090000        1.0080           0
   10892 QQQ  681  NMP  C5   CG3C52    -0.027000       12.0110           0
   10893 QQQ  681  NMP  H8   HGA2       0.090000        1.0080           0
   10894 QQQ  681  NMP  H9   HGA2       0.090000        1.0080           0
   10895 QQQ  681  NMP  C6   CG2R53     0.286000       12.0110           0
   10896 QQQ  681  NMP  O7   OG2D1     -0.500000       15.9990           0
   10897 QQQ  682  NMP  C1   CG331     -0.161000       12.0110           0
   10898 QQQ  682  NMP  H1   HGA3       0.090000        1.0080           0
   10899 QQQ  682  NMP  H2   HGA3       0.090000        1.0080           0
   10900 QQQ  682  NMP  H3   HGA3       0.090000        1.0080           0
   10901 QQQ  682  NMP  N2   NG2R53    -0.098000       14.0070           0
   10902 QQQ  682  NMP  C3   CG3C52    -0.077000       12.0110           0
   10903 QQQ  682  NMP  H4   HGA2       0.090000        1.0080           0
   10904 QQQ  682  NMP  H5   HGA2       0.090000        1.0080           0
   10905 QQQ  682  NMP  C4   CG3C52    -0.233000       12.0110           0
   10906 QQQ  682  NMP  H6   HGA2       0.090000        1.0080           0
   10907 QQQ  682  NMP  H7   HGA2       0.090000        1.0080           0
   10908 QQQ  682  NMP  C5   CG3C52    -0.027000       12.0110           0
   10909 QQQ  682  NMP  H8   HGA2       0.090000        1.0080           0
   10910 QQQ  682  NMP  H9   HGA2       0.090000        1.0080           0
   10911 QQQ  682  NMP  C6   CG2R53     0.286000       12.0110           0
   10912 QQQ  682  NMP  O7   OG2D1     -0.500000       15.9990           0
   10913 QQQ  683  NMP  C1   CG331     -0.161000       12.0110           0
   10914 QQQ  683  NMP  H1   HGA3       0.090000        1.0080           0
   10915 QQQ  683  NMP  H2   HGA3       0.090000        1.0080           0
   10916 QQQ  683  NMP  H3   HGA3       0.090000        1.0080           0
   10917 QQQ  683  NMP  N2   NG2R53    -0.098000       14.0070           0
   10918 QQQ  683  NMP  C3   CG3C52    -0.077000       12.0110           0
   10919 QQQ  683  NMP  H4   HGA2       0.090000        1.0080           0
   10920 QQQ  683  NMP  H5   HGA2       0.090000        1.0080           0
   10921 QQQ  683  NMP  C4   CG3C52    -0.233000       12.0110           0
   10922 QQQ  683  NMP  H6   HGA2       0.090000        1.0080           0
   10923 QQQ  683  NMP  H7   HGA2       0.090000        1.0080           0
   10924 QQQ  683  NMP  C5   CG3C52    -0.027000       12.0110           0
   10925 QQQ  683  NMP  H8   HGA2       0.090000        1.0080           0
   10926 QQQ  683  NMP  H9   HGA2       0.090000        1.0080           0
   10927 QQQ  683  NMP  C6   CG2R53     0.286000       12.0110           0
   10928 QQQ  683  NMP  O7   OG2D1     -0.500000       15.9990           0
   10929 QQQ  684  NMP  C1   CG331     -0.161000       12.0110           0
   10930 QQQ  684  NMP  H1   HGA3       0.090000        1.0080           0
   10931 QQQ  684  NMP  H2   HGA3       0.090000        1.0080           0
   10932 QQQ  684  NMP  H3   HGA3       0.090000        1.0080           0
   10933 QQQ  684  NMP  N2   NG2R53    -0.098000       14.0070           0
   10934 QQQ  684  NMP  C3   CG3C52    -0.077000       12.0110           0
   10935 QQQ  684  NMP  H4   HGA2       0.090000        1.0080           0
   10936 QQQ  684  NMP  H5   HGA2       0.090000        1.0080           0
   10937 QQQ  684  NMP  C4   CG3C52    -0.233000       12.0110           0
   10938 QQQ  684  NMP  H6   HGA2       0.090000        1.0080           0
   10939 QQQ  684  NMP  H7   HGA2       0.090000        1.0080           0
   10940 QQQ  684  NMP  C5   CG3C52    -0.027000       12.0110           0
   10941 QQQ  684  NMP  H8   HGA2       0.090000        1.0080           0
   10942 QQQ  684  NMP  H9   HGA2       0.090000        1.0080           0
   10943 QQQ  684  NMP  C6   CG2R53     0.286000       12.0110           0
   10944 QQQ  684  NMP  O7   OG2D1     -0.500000       15.9990           0
   10945 QQQ  685  NMP  C1   CG331     -0.161000       12.0110           0
   10946 QQQ  685  NMP  H1   HGA3       0.090000        1.0080           0
   10947 QQQ  685  NMP  H2   HGA3       0.090000        1.0080           0
   10948 QQQ  685  NMP  H3   HGA3       0.090000        1.0080           0
   10949 QQQ  685  NMP  N2   NG2R53    -0.098000       14.0070           0
   10950 QQQ  685  NMP  C3   CG3C52    -0.077000       12.0110           0
   10951 QQQ  685  NMP  H4   HGA2       0.090000        1.0080           0
   10952 QQQ  685  NMP  H5   HGA2       0.090000        1.0080           0
   10953 QQQ  685  NMP  C4   CG3C52    -0.233000       12.0110           0
   10954 QQQ  685  NMP  H6   HGA2       0.090000        1.0080           0
   10955 QQQ  685  NMP  H7   HGA2       0.090000        1.0080           0
   10956 QQQ  685  NMP  C5   CG3C52    -0.027000       12.0110           0
   10957 QQQ  685  NMP  H8   HGA2       0.090000        1.0080           0
   10958 QQQ  685  NMP  H9   HGA2       0.090000        1.0080           0
   10959 QQQ  685  NMP  C6   CG2R53     0.286000       12.0110           0
   10960 QQQ  685  NMP  O7   OG2D1     -0.500000       15.9990           0
   10961 QQQ  686  NMP  C1   CG331     -0.161000       12.0110           0
   10962 QQQ  686  NMP  H1   HGA3       0.090000        1.0080           0
   10963 QQQ  686  NMP  H2   HGA3       0.090000        1.0080           0
   10964 QQQ  686  NMP  H3   HGA3       0.090000        1.0080           0
   10965 QQQ  686  NMP  N2   NG2R53    -0.098000       14.0070           0
   10966 QQQ  686  NMP  C3   CG3C52    -0.077000       12.0110           0
   10967 QQQ  686  NMP  H4   HGA2       0.090000        1.0080           0
   10968 QQQ  686  NMP  H5   HGA2       0.090000        1.0080           0
   10969 QQQ  686  NMP  C4   CG3C52    -0.233000       12.0110           0
   10970 QQQ  686  NMP  H6   HGA2       0.090000        1.0080           0
   10971 QQQ  686  NMP  H7   HGA2       0.090000        1.0080           0
   10972 QQQ  686  NMP  C5   CG3C52    -0.027000       12.0110           0
   10973 QQQ  686  NMP  H8   HGA2       0.090000        1.0080           0
   10974 QQQ  686  NMP  H9   HGA2       0.090000        1.0080           0
   10975 QQQ  686  NMP  C6   CG2R53     0.286000       12.0110           0
   10976 QQQ  686  NMP  O7   OG2D1     -0.500000       15.9990           0
   10977 QQQ  687  NMP  C1   CG331     -0.161000       12.0110           0
   10978 QQQ  687  NMP  H1   HGA3       0.090000        1.0080           0
   10979 QQQ  687  NMP  H2   HGA3       0.090000        1.0080           0
   10980 QQQ  687  NMP  H3   HGA3       0.090000        1.0080           0
   10981 QQQ  687  NMP  N2   NG2R53    -0.098000       14.0070           0
   10982 QQQ  687  NMP  C3   CG3C52    -0.077000       12.0110           0
   10983 QQQ  687  NMP  H4   HGA2       0.090000        1.0080           0
   10984 QQQ  687  NMP  H5   HGA2       0.090000        1.0080           0
   10985 QQQ  687  NMP  C4   CG3C52    -0.233000       12.0110           0
   10986 QQQ  687  NMP  H6   HGA2       0.090000        1.0080           0
   10987 QQQ  687  NMP  H7   HGA2       0.090000        1.0080           0
   10988 QQQ  687  NMP  C5   CG3C52    -0.027000       12.0110           0
   10989 QQQ  687  NMP  H8   HGA2       0.090000        1.0080           0
   10990 QQQ  687  NMP  H9   HGA2       0.090000        1.0080           0
   10991 QQQ  687  NMP  C6   CG2R53     0.286000       12.0110           0
   10992 QQQ  687  NMP  O7   OG2D1     -0.500000       15.9990           0
   10993 QQQ  688  NMP  C1   CG331     -0.161000       12.0110           0
   10994 QQQ  688  NMP  H1   HGA3       0.090000        1.0080           0
   10995 QQQ  688  NMP  H2   HGA3       0.090000        1.0080           0
   10996 QQQ  688  NMP  H3   HGA3       0.090000        1.0080           0
   10997 QQQ  688  NMP  N2   NG2R53    -0.098000       14.0070           0
   10998 QQQ  688  NMP  C3   CG3C52    -0.077000       12.0110           0
   10999 QQQ  688  NMP  H4   HGA2       0.090000        1.0080           0
   11000 QQQ  688  NMP  H5   HGA2       0.090000        1.0080           0
   11001 QQQ  688  NMP  C4   CG3C52    -0.233000       12.0110           0
   11002 QQQ  688  NMP  H6   HGA2       0.090000        1.0080           0
   11003 QQQ  688  NMP  H7   HGA2       0.090000        1.0080           0
   11004 QQQ  688  NMP  C5   CG3C52    -0.027000       12.0110           0
   11005 QQQ  688  NMP  H8   HGA2       0.090000        1.0080           0
   11006 QQQ  688  NMP  H9   HGA2       0.090000        1.0080           0
   11007 QQQ  688  NMP  C6   CG2R53     0.286000       12.0110           0
   11008 QQQ  688  NMP  O7   OG2D1     -0.500000       15.9990           0
   11009 QQQ  689  NMP  C1   CG331     -0.161000       12.0110           0
   11010 QQQ  689  NMP  H1   HGA3       0.090000        1.0080           0
   11011 QQQ  689  NMP  H2   HGA3       0.090000        1.0080           0
   11012 QQQ  689  NMP  H3   HGA3       0.090000        1.0080           0
   11013 QQQ  689  NMP  N2   NG2R53    -0.098000       14.0070           0
   11014 QQQ  689  NMP  C3   CG3C52    -0.077000       12.0110           0
   11015 QQQ  689  NMP  H4   HGA2       0.090000        1.0080           0
   11016 QQQ  689  NMP  H5   HGA2       0.090000        1.0080           0
   11017 QQQ  689  NMP  C4   CG3C52    -0.233000       12.0110           0
   11018 QQQ  689  NMP  H6   HGA2       0.090000        1.0080           0
   11019 QQQ  689  NMP  H7   HGA2       0.090000        1.0080           0
   11020 QQQ  689  NMP  C5   CG3C52    -0.027000       12.0110           0
   11021 QQQ  689  NMP  H8   HGA2       0.090000        1.0080           0
   11022 QQQ  689  NMP  H9   HGA2       0.090000        1.0080           0
   11023 QQQ  689  NMP  C6   CG2R53     0.286000       12.0110           0
   11024 QQQ  689  NMP  O7   OG2D1     -0.500000       15.9990           0
   11025 QQQ  690  NMP  C1   CG331     -0.161000       12.0110           0
   11026 QQQ  690  NMP  H1   HGA3       0.090000        1.0080           0
   11027 QQQ  690  NMP  H2   HGA3       0.090000        1.0080           0
   11028 QQQ  690  NMP  H3   HGA3       0.090000        1.0080           0
   11029 QQQ  690  NMP  N2   NG2R53    -0.098000       14.0070           0
   11030 QQQ  690  NMP  C3   CG3C52    -0.077000       12.0110           0
   11031 QQQ  690  NMP  H4   HGA2       0.090000        1.0080           0
   11032 QQQ  690  NMP  H5   HGA2       0.090000        1.0080           0
   11033 QQQ  690  NMP  C4   CG3C52    -0.233000       12.0110           0
   11034 QQQ  690  NMP  H6   HGA2       0.090000        1.0080           0
   11035 QQQ  690  NMP  H7   HGA2       0.090000        1.0080           0
   11036 QQQ  690  NMP  C5   CG3C52    -0.027000       12.0110           0
   11037 QQQ  690  NMP  H8   HGA2       0.090000        1.0080           0
   11038 QQQ  690  NMP  H9   HGA2       0.090000        1.0080           0
   11039 QQQ  690  NMP  C6   CG2R53     0.286000       12.0110           0
   11040 QQQ  690  NMP  O7   OG2D1     -0.500000       15.9990           0
   11041 QQQ  691  NMP  C1   CG331     -0.161000       12.0110           0
   11042 QQQ  691  NMP  H1   HGA3       0.090000        1.0080           0
   11043 QQQ  691  NMP  H2   HGA3       0.090000        1.0080           0
   11044 QQQ  691  NMP  H3   HGA3       0.090000        1.0080           0
   11045 QQQ  691  NMP  N2   NG2R53    -0.098000       14.0070           0
   11046 QQQ  691  NMP  C3   CG3C52    -0.077000       12.0110           0
   11047 QQQ  691  NMP  H4   HGA2       0.090000        1.0080           0
   11048 QQQ  691  NMP  H5   HGA2       0.090000        1.0080           0
   11049 QQQ  691  NMP  C4   CG3C52    -0.233000       12.0110           0
   11050 QQQ  691  NMP  H6   HGA2       0.090000        1.0080           0
   11051 QQQ  691  NMP  H7   HGA2       0.090000        1.0080           0
   11052 QQQ  691  NMP  C5   CG3C52    -0.027000       12.0110           0
   11053 QQQ  691  NMP  H8   HGA2       0.090000        1.0080           0
   11054 QQQ  691  NMP  H9   HGA2       0.090000        1.0080           0
   11055 QQQ  691  NMP  C6   CG2R53     0.286000       12.0110           0
   11056 QQQ  691  NMP  O7   OG2D1     -0.500000       15.9990           0
   11057 QQQ  692  NMP  C1   CG331     -0.161000       12.0110           0
   11058 QQQ  692  NMP  H1   HGA3       0.090000        1.0080           0
   11059 QQQ  692  NMP  H2   HGA3       0.090000        1.0080           0
   11060 QQQ  692  NMP  H3   HGA3       0.090000        1.0080           0
   11061 QQQ  692  NMP  N2   NG2R53    -0.098000       14.0070           0
   11062 QQQ  692  NMP  C3   CG3C52    -0.077000       12.0110           0
   11063 QQQ  692  NMP  H4   HGA2       0.090000        1.0080           0
   11064 QQQ  692  NMP  H5   HGA2       0.090000        1.0080           0
   11065 QQQ  692  NMP  C4   CG3C52    -0.233000       12.0110           0
   11066 QQQ  692  NMP  H6   HGA2       0.090000        1.0080           0
   11067 QQQ  692  NMP  H7   HGA2       0.090000        1.0080           0
   11068 QQQ  692  NMP  C5   CG3C52    -0.027000       12.0110           0
   11069 QQQ  692  NMP  H8   HGA2       0.090000        1.0080           0
   11070 QQQ  692  NMP  H9   HGA2       0.090000        1.0080           0
   11071 QQQ  692  NMP  C6   CG2R53     0.286000       12.0110           0
   11072 QQQ  692  NMP  O7   OG2D1     -0.500000       15.9990           0
   11073 QQQ  693  NMP  C1   CG331     -0.161000       12.0110           0
   11074 QQQ  693  NMP  H1   HGA3       0.090000        1.0080           0
   11075 QQQ  693  NMP  H2   HGA3       0.090000        1.0080           0
   11076 QQQ  693  NMP  H3   HGA3       0.090000        1.0080           0
   11077 QQQ  693  NMP  N2   NG2R53    -0.098000       14.0070           0
   11078 QQQ  693  NMP  C3   CG3C52    -0.077000       12.0110           0
   11079 QQQ  693  NMP  H4   HGA2       0.090000        1.0080           0
   11080 QQQ  693  NMP  H5   HGA2       0.090000        1.0080           0
   11081 QQQ  693  NMP  C4   CG3C52    -0.233000       12.0110           0
   11082 QQQ  693  NMP  H6   HGA2       0.090000        1.0080           0
   11083 QQQ  693  NMP  H7   HGA2       0.090000        1.0080           0
   11084 QQQ  693  NMP  C5   CG3C52    -0.027000       12.0110           0
   11085 QQQ  693  NMP  H8   HGA2       0.090000        1.0080           0
   11086 QQQ  693  NMP  H9   HGA2       0.090000        1.0080           0
   11087 QQQ  693  NMP  C6   CG2R53     0.286000       12.0110           0
   11088 QQQ  693  NMP  O7   OG2D1     -0.500000       15.9990           0
   11089 QQQ  694  NMP  C1   CG331     -0.161000       12.0110           0
   11090 QQQ  694  NMP  H1   HGA3       0.090000        1.0080           0
   11091 QQQ  694  NMP  H2   HGA3       0.090000        1.0080           0
   11092 QQQ  694  NMP  H3   HGA3       0.090000        1.0080           0
   11093 QQQ  694  NMP  N2   NG2R53    -0.098000       14.0070           0
   11094 QQQ  694  NMP  C3   CG3C52    -0.077000       12.0110           0
   11095 QQQ  694  NMP  H4   HGA2       0.090000        1.0080           0
   11096 QQQ  694  NMP  H5   HGA2       0.090000        1.0080           0
   11097 QQQ  694  NMP  C4   CG3C52    -0.233000       12.0110           0
   11098 QQQ  694  NMP  H6   HGA2       0.090000        1.0080           0
   11099 QQQ  694  NMP  H7   HGA2       0.090000        1.0080           0
   11100 QQQ  694  NMP  C5   CG3C52    -0.027000       12.0110           0
   11101 QQQ  694  NMP  H8   HGA2       0.090000        1.0080           0
   11102 QQQ  694  NMP  H9   HGA2       0.090000        1.0080           0
   11103 QQQ  694  NMP  C6   CG2R53     0.286000       12.0110           0
   11104 QQQ  694  NMP  O7   OG2D1     -0.500000       15.9990           0
   11105 QQQ  695  NMP  C1   CG331     -0.161000       12.0110           0
   11106 QQQ  695  NMP  H1   HGA3       0.090000        1.0080           0
   11107 QQQ  695  NMP  H2   HGA3       0.090000        1.0080           0
   11108 QQQ  695  NMP  H3   HGA3       0.090000        1.0080           0
   11109 QQQ  695  NMP  N2   NG2R53    -0.098000       14.0070           0
   11110 QQQ  695  NMP  C3   CG3C52    -0.077000       12.0110           0
   11111 QQQ  695  NMP  H4   HGA2       0.090000        1.0080           0
   11112 QQQ  695  NMP  H5   HGA2       0.090000        1.0080           0
   11113 QQQ  695  NMP  C4   CG3C52    -0.233000       12.0110           0
   11114 QQQ  695  NMP  H6   HGA2       0.090000        1.0080           0
   11115 QQQ  695  NMP  H7   HGA2       0.090000        1.0080           0
   11116 QQQ  695  NMP  C5   CG3C52    -0.027000       12.0110           0
   11117 QQQ  695  NMP  H8   HGA2       0.090000        1.0080           0
   11118 QQQ  695  NMP  H9   HGA2       0.090000        1.0080           0
   11119 QQQ  695  NMP  C6   CG2R53     0.286000       12.0110           0
   11120 QQQ  695  NMP  O7   OG2D1     -0.500000       15.9990           0
   11121 QQQ  696  NMP  C1   CG331     -0.161000       12.0110           0
   11122 QQQ  696  NMP  H1   HGA3       0.090000        1.0080           0
   11123 QQQ  696  NMP  H2   HGA3       0.090000        1.0080           0
   11124 QQQ  696  NMP  H3   HGA3       0.090000        1.0080           0
   11125 QQQ  696  NMP  N2   NG2R53    -0.098000       14.0070           0
   11126 QQQ  696  NMP  C3   CG3C52    -0.077000       12.0110           0
   11127 QQQ  696  NMP  H4   HGA2       0.090000        1.0080           0
   11128 QQQ  696  NMP  H5   HGA2       0.090000        1.0080           0
   11129 QQQ  696  NMP  C4   CG3C52    -0.233000       12.0110           0
   11130 QQQ  696  NMP  H6   HGA2       0.090000        1.0080           0
   11131 QQQ  696  NMP  H7   HGA2       0.090000        1.0080           0
   11132 QQQ  696  NMP  C5   CG3C52    -0.027000       12.0110           0
   11133 QQQ  696  NMP  H8   HGA2       0.090000        1.0080           0
   11134 QQQ  696  NMP  H9   HGA2       0.090000        1.0080           0
   11135 QQQ  696  NMP  C6   CG2R53     0.286000       12.0110           0
   11136 QQQ  696  NMP  O7   OG2D1     -0.500000       15.9990           0
   11137 QQQ  697  NMP  C1   CG331     -0.161000       12.0110           0
   11138 QQQ  697  NMP  H1   HGA3       0.090000        1.0080           0
   11139 QQQ  697  NMP  H2   HGA3       0.090000        1.0080           0
   11140 QQQ  697  NMP  H3   HGA3       0.090000        1.0080           0
   11141 QQQ  697  NMP  N2   NG2R53    -0.098000       14.0070           0
   11142 QQQ  697  NMP  C3   CG3C52    -0.077000       12.0110           0
   11143 QQQ  697  NMP  H4   HGA2       0.090000        1.0080           0
   11144 QQQ  697  NMP  H5   HGA2       0.090000        1.0080           0
   11145 QQQ  697  NMP  C4   CG3C52    -0.233000       12.0110           0
   11146 QQQ  697  NMP  H6   HGA2       0.090000        1.0080           0
   11147 QQQ  697  NMP  H7   HGA2       0.090000        1.0080           0
   11148 QQQ  697  NMP  C5   CG3C52    -0.027000       12.0110           0
   11149 QQQ  697  NMP  H8   HGA2       0.090000        1.0080           0
   11150 QQQ  697  NMP  H9   HGA2       0.090000        1.0080           0
   11151 QQQ  697  NMP  C6   CG2R53     0.286000       12.0110           0
   11152 QQQ  697  NMP  O7   OG2D1     -0.500000       15.9990           0
   11153 QQQ  698  NMP  C1   CG331     -0.161000       12.0110           0
   11154 QQQ  698  NMP  H1   HGA3       0.090000        1.0080           0
   11155 QQQ  698  NMP  H2   HGA3       0.090000        1.0080           0
   11156 QQQ  698  NMP  H3   HGA3       0.090000        1.0080           0
   11157 QQQ  698  NMP  N2   NG2R53    -0.098000       14.0070           0
   11158 QQQ  698  NMP  C3   CG3C52    -0.077000       12.0110           0
   11159 QQQ  698  NMP  H4   HGA2       0.090000        1.0080           0
   11160 QQQ  698  NMP  H5   HGA2       0.090000        1.0080           0
   11161 QQQ  698  NMP  C4   CG3C52    -0.233000       12.0110           0
   11162 QQQ  698  NMP  H6   HGA2       0.090000        1.0080           0
   11163 QQQ  698  NMP  H7   HGA2       0.090000        1.0080           0
   11164 QQQ  698  NMP  C5   CG3C52    -0.027000       12.0110           0
   11165 QQQ  698  NMP  H8   HGA2       0.090000        1.0080           0
   11166 QQQ  698  NMP  H9   HGA2       0.090000        1.0080           0
   11167 QQQ  698  NMP  C6   CG2R53     0.286000       12.0110           0
   11168 QQQ  698  NMP  O7   OG2D1     -0.500000       15.9990           0
   11169 QQQ  699  NMP  C1   CG331     -0.161000       12.0110           0
   11170 QQQ  699  NMP  H1   HGA3       0.090000        1.0080           0
   11171 QQQ  699  NMP  H2   HGA3       0.090000        1.0080           0
   11172 QQQ  699  NMP  H3   HGA3       0.090000        1.0080           0
   11173 QQQ  699  NMP  N2   NG2R53    -0.098000       14.0070           0
   11174 QQQ  699  NMP  C3   CG3C52    -0.077000       12.0110           0
   11175 QQQ  699  NMP  H4   HGA2       0.090000        1.0080           0
   11176 QQQ  699  NMP  H5   HGA2       0.090000        1.0080           0
   11177 QQQ  699  NMP  C4   CG3C52    -0.233000       12.0110           0
   11178 QQQ  699  NMP  H6   HGA2       0.090000        1.0080           0
   11179 QQQ  699  NMP  H7   HGA2       0.090000        1.0080           0
   11180 QQQ  699  NMP  C5   CG3C52    -0.027000       12.0110           0
   11181 QQQ  699  NMP  H8   HGA2       0.090000        1.0080           0
   11182 QQQ  699  NMP  H9   HGA2       0.090000        1.0080           0
   11183 QQQ  699  NMP  C6   CG2R53     0.286000       12.0110           0
   11184 QQQ  699  NMP  O7   OG2D1     -0.500000       15.9990           0
   11185 QQQ  700  NMP  C1   CG331     -0.161000       12.0110           0
   11186 QQQ  700  NMP  H1   HGA3       0.090000        1.0080           0
   11187 QQQ  700  NMP  H2   HGA3       0.090000        1.0080           0
   11188 QQQ  700  NMP  H3   HGA3       0.090000        1.0080           0
   11189 QQQ  700  NMP  N2   NG2R53    -0.098000       14.0070           0
   11190 QQQ  700  NMP  C3   CG3C52    -0.077000       12.0110           0
   11191 QQQ  700  NMP  H4   HGA2       0.090000        1.0080           0
   11192 QQQ  700  NMP  H5   HGA2       0.090000        1.0080           0
   11193 QQQ  700  NMP  C4   CG3C52    -0.233000       12.0110           0
   11194 QQQ  700  NMP  H6   HGA2       0.090000        1.0080           0
   11195 QQQ  700  NMP  H7   HGA2       0.090000        1.0080           0
   11196 QQQ  700  NMP  C5   CG3C52    -0.027000       12.0110           0
   11197 QQQ  700  NMP  H8   HGA2       0.090000        1.0080           0
   11198 QQQ  700  NMP  H9   HGA2       0.090000        1.0080           0
   11199 QQQ  700  NMP  C6   CG2R53     0.286000       12.0110           0
   11200 QQQ  700  NMP  O7   OG2D1     -0.500000       15.9990           0
   11201 QQQ  701  NMP  C1   CG331     -0.161000       12.0110           0
   11202 QQQ  701  NMP  H1   HGA3       0.090000        1.0080           0
   11203 QQQ  701  NMP  H2   HGA3       0.090000        1.0080           0
   11204 QQQ  701  NMP  H3   HGA3       0.090000        1.0080           0
   11205 QQQ  701  NMP  N2   NG2R53    -0.098000       14.0070           0
   11206 QQQ  701  NMP  C3   CG3C52    -0.077000       12.0110           0
   11207 QQQ  701  NMP  H4   HGA2       0.090000        1.0080           0
   11208 QQQ  701  NMP  H5   HGA2       0.090000        1.0080           0
   11209 QQQ  701  NMP  C4   CG3C52    -0.233000       12.0110           0
   11210 QQQ  701  NMP  H6   HGA2       0.090000        1.0080           0
   11211 QQQ  701  NMP  H7   HGA2       0.090000        1.0080           0
   11212 QQQ  701  NMP  C5   CG3C52    -0.027000       12.0110           0
   11213 QQQ  701  NMP  H8   HGA2       0.090000        1.0080           0
   11214 QQQ  701  NMP  H9   HGA2       0.090000        1.0080           0
   11215 QQQ  701  NMP  C6   CG2R53     0.286000       12.0110           0
   11216 QQQ  701  NMP  O7   OG2D1     -0.500000       15.9990           0
   11217 QQQ  702  NMP  C1   CG331     -0.161000       12.0110           0
   11218 QQQ  702  NMP  H1   HGA3       0.090000        1.0080           0
   11219 QQQ  702  NMP  H2   HGA3       0.090000        1.0080           0
   11220 QQQ  702  NMP  H3   HGA3       0.090000        1.0080           0
   11221 QQQ  702  NMP  N2   NG2R53    -0.098000       14.0070           0
   11222 QQQ  702  NMP  C3   CG3C52    -0.077000       12.0110           0
   11223 QQQ  702  NMP  H4   HGA2       0.090000        1.0080           0
   11224 QQQ  702  NMP  H5   HGA2       0.090000        1.0080           0
   11225 QQQ  702  NMP  C4   CG3C52    -0.233000       12.0110           0
   11226 QQQ  702  NMP  H6   HGA2       0.090000        1.0080           0
   11227 QQQ  702  NMP  H7   HGA2       0.090000        1.0080           0
   11228 QQQ  702  NMP  C5   CG3C52    -0.027000       12.0110           0
   11229 QQQ  702  NMP  H8   HGA2       0.090000        1.0080           0
   11230 QQQ  702  NMP  H9   HGA2       0.090000        1.0080           0
   11231 QQQ  702  NMP  C6   CG2R53     0.286000       12.0110           0
   11232 QQQ  702  NMP  O7   OG2D1     -0.500000       15.9990           0
   11233 QQQ  703  NMP  C1   CG331     -0.161000       12.0110           0
   11234 QQQ  703  NMP  H1   HGA3       0.090000        1.0080           0
   11235 QQQ  703  NMP  H2   HGA3       0.090000        1.0080           0
   11236 QQQ  703  NMP  H3   HGA3       0.090000        1.0080           0
   11237 QQQ  703  NMP  N2   NG2R53    -0.098000       14.0070           0
   11238 QQQ  703  NMP  C3   CG3C52    -0.077000       12.0110           0
   11239 QQQ  703  NMP  H4   HGA2       0.090000        1.0080           0
   11240 QQQ  703  NMP  H5   HGA2       0.090000        1.0080           0
   11241 QQQ  703  NMP  C4   CG3C52    -0.233000       12.0110           0
   11242 QQQ  703  NMP  H6   HGA2       0.090000        1.0080           0
   11243 QQQ  703  NMP  H7   HGA2       0.090000        1.0080           0
   11244 QQQ  703  NMP  C5   CG3C52    -0.027000       12.0110           0
   11245 QQQ  703  NMP  H8   HGA2       0.090000        1.0080           0
   11246 QQQ  703  NMP  H9   HGA2       0.090000        1.0080           0
   11247 QQQ  703  NMP  C6   CG2R53     0.286000       12.0110           0
   11248 QQQ  703  NMP  O7   OG2D1     -0.500000       15.9990           0
   11249 QQQ  704  NMP  C1   CG331     -0.161000       12.0110           0
   11250 QQQ  704  NMP  H1   HGA3       0.090000        1.0080           0
   11251 QQQ  704  NMP  H2   HGA3       0.090000        1.0080           0
   11252 QQQ  704  NMP  H3   HGA3       0.090000        1.0080           0
   11253 QQQ  704  NMP  N2   NG2R53    -0.098000       14.0070           0
   11254 QQQ  704  NMP  C3   CG3C52    -0.077000       12.0110           0
   11255 QQQ  704  NMP  H4   HGA2       0.090000        1.0080           0
   11256 QQQ  704  NMP  H5   HGA2       0.090000        1.0080           0
   11257 QQQ  704  NMP  C4   CG3C52    -0.233000       12.0110           0
   11258 QQQ  704  NMP  H6   HGA2       0.090000        1.0080           0
   11259 QQQ  704  NMP  H7   HGA2       0.090000        1.0080           0
   11260 QQQ  704  NMP  C5   CG3C52    -0.027000       12.0110           0
   11261 QQQ  704  NMP  H8   HGA2       0.090000        1.0080           0
   11262 QQQ  704  NMP  H9   HGA2       0.090000        1.0080           0
   11263 QQQ  704  NMP  C6   CG2R53     0.286000       12.0110           0
   11264 QQQ  704  NMP  O7   OG2D1     -0.500000       15.9990           0
   11265 QQQ  705  NMP  C1   CG331     -0.161000       12.0110           0
   11266 QQQ  705  NMP  H1   HGA3       0.090000        1.0080           0
   11267 QQQ  705  NMP  H2   HGA3       0.090000        1.0080           0
   11268 QQQ  705  NMP  H3   HGA3       0.090000        1.0080           0
   11269 QQQ  705  NMP  N2   NG2R53    -0.098000       14.0070           0
   11270 QQQ  705  NMP  C3   CG3C52    -0.077000       12.0110           0
   11271 QQQ  705  NMP  H4   HGA2       0.090000        1.0080           0
   11272 QQQ  705  NMP  H5   HGA2       0.090000        1.0080           0
   11273 QQQ  705  NMP  C4   CG3C52    -0.233000       12.0110           0
   11274 QQQ  705  NMP  H6   HGA2       0.090000        1.0080           0
   11275 QQQ  705  NMP  H7   HGA2       0.090000        1.0080           0
   11276 QQQ  705  NMP  C5   CG3C52    -0.027000       12.0110           0
   11277 QQQ  705  NMP  H8   HGA2       0.090000        1.0080           0
   11278 QQQ  705  NMP  H9   HGA2       0.090000        1.0080           0
   11279 QQQ  705  NMP  C6   CG2R53     0.286000       12.0110           0
   11280 QQQ  705  NMP  O7   OG2D1     -0.500000       15.9990           0
   11281 QQQ  706  NMP  C1   CG331     -0.161000       12.0110           0
   11282 QQQ  706  NMP  H1   HGA3       0.090000        1.0080           0
   11283 QQQ  706  NMP  H2   HGA3       0.090000        1.0080           0
   11284 QQQ  706  NMP  H3   HGA3       0.090000        1.0080           0
   11285 QQQ  706  NMP  N2   NG2R53    -0.098000       14.0070           0
   11286 QQQ  706  NMP  C3   CG3C52    -0.077000       12.0110           0
   11287 QQQ  706  NMP  H4   HGA2       0.090000        1.0080           0
   11288 QQQ  706  NMP  H5   HGA2       0.090000        1.0080           0
   11289 QQQ  706  NMP  C4   CG3C52    -0.233000       12.0110           0
   11290 QQQ  706  NMP  H6   HGA2       0.090000        1.0080           0
   11291 QQQ  706  NMP  H7   HGA2       0.090000        1.0080           0
   11292 QQQ  706  NMP  C5   CG3C52    -0.027000       12.0110           0
   11293 QQQ  706  NMP  H8   HGA2       0.090000        1.0080           0
   11294 QQQ  706  NMP  H9   HGA2       0.090000        1.0080           0
   11295 QQQ  706  NMP  C6   CG2R53     0.286000       12.0110           0
   11296 QQQ  706  NMP  O7   OG2D1     -0.500000       15.9990           0
   11297 QQQ  707  NMP  C1   CG331     -0.161000       12.0110           0
   11298 QQQ  707  NMP  H1   HGA3       0.090000        1.0080           0
   11299 QQQ  707  NMP  H2   HGA3       0.090000        1.0080           0
   11300 QQQ  707  NMP  H3   HGA3       0.090000        1.0080           0
   11301 QQQ  707  NMP  N2   NG2R53    -0.098000       14.0070           0
   11302 QQQ  707  NMP  C3   CG3C52    -0.077000       12.0110           0
   11303 QQQ  707  NMP  H4   HGA2       0.090000        1.0080           0
   11304 QQQ  707  NMP  H5   HGA2       0.090000        1.0080           0
   11305 QQQ  707  NMP  C4   CG3C52    -0.233000       12.0110           0
   11306 QQQ  707  NMP  H6   HGA2       0.090000        1.0080           0
   11307 QQQ  707  NMP  H7   HGA2       0.090000        1.0080           0
   11308 QQQ  707  NMP  C5   CG3C52    -0.027000       12.0110           0
   11309 QQQ  707  NMP  H8   HGA2       0.090000        1.0080           0
   11310 QQQ  707  NMP  H9   HGA2       0.090000        1.0080           0
   11311 QQQ  707  NMP  C6   CG2R53     0.286000       12.0110           0
   11312 QQQ  707  NMP  O7   OG2D1     -0.500000       15.9990           0
   11313 QQQ  708  NMP  C1   CG331     -0.161000       12.0110           0
   11314 QQQ  708  NMP  H1   HGA3       0.090000        1.0080           0
   11315 QQQ  708  NMP  H2   HGA3       0.090000        1.0080           0
   11316 QQQ  708  NMP  H3   HGA3       0.090000        1.0080           0
   11317 QQQ  708  NMP  N2   NG2R53    -0.098000       14.0070           0
   11318 QQQ  708  NMP  C3   CG3C52    -0.077000       12.0110           0
   11319 QQQ  708  NMP  H4   HGA2       0.090000        1.0080           0
   11320 QQQ  708  NMP  H5   HGA2       0.090000        1.0080           0
   11321 QQQ  708  NMP  C4   CG3C52    -0.233000       12.0110           0
   11322 QQQ  708  NMP  H6   HGA2       0.090000        1.0080           0
   11323 QQQ  708  NMP  H7   HGA2       0.090000        1.0080           0
   11324 QQQ  708  NMP  C5   CG3C52    -0.027000       12.0110           0
   11325 QQQ  708  NMP  H8   HGA2       0.090000        1.0080           0
   11326 QQQ  708  NMP  H9   HGA2       0.090000        1.0080           0
   11327 QQQ  708  NMP  C6   CG2R53     0.286000       12.0110           0
   11328 QQQ  708  NMP  O7   OG2D1     -0.500000       15.9990           0
   11329 QQQ  709  NMP  C1   CG331     -0.161000       12.0110           0
   11330 QQQ  709  NMP  H1   HGA3       0.090000        1.0080           0
   11331 QQQ  709  NMP  H2   HGA3       0.090000        1.0080           0
   11332 QQQ  709  NMP  H3   HGA3       0.090000        1.0080           0
   11333 QQQ  709  NMP  N2   NG2R53    -0.098000       14.0070           0
   11334 QQQ  709  NMP  C3   CG3C52    -0.077000       12.0110           0
   11335 QQQ  709  NMP  H4   HGA2       0.090000        1.0080           0
   11336 QQQ  709  NMP  H5   HGA2       0.090000        1.0080           0
   11337 QQQ  709  NMP  C4   CG3C52    -0.233000       12.0110           0
   11338 QQQ  709  NMP  H6   HGA2       0.090000        1.0080           0
   11339 QQQ  709  NMP  H7   HGA2       0.090000        1.0080           0
   11340 QQQ  709  NMP  C5   CG3C52    -0.027000       12.0110           0
   11341 QQQ  709  NMP  H8   HGA2       0.090000        1.0080           0
   11342 QQQ  709  NMP  H9   HGA2       0.090000        1.0080           0
   11343 QQQ  709  NMP  C6   CG2R53     0.286000       12.0110           0
   11344 QQQ  709  NMP  O7   OG2D1     -0.500000       15.9990           0
   11345 QQQ  710  NMP  C1   CG331     -0.161000       12.0110           0
   11346 QQQ  710  NMP  H1   HGA3       0.090000        1.0080           0
   11347 QQQ  710  NMP  H2   HGA3       0.090000        1.0080           0
   11348 QQQ  710  NMP  H3   HGA3       0.090000        1.0080           0
   11349 QQQ  710  NMP  N2   NG2R53    -0.098000       14.0070           0
   11350 QQQ  710  NMP  C3   CG3C52    -0.077000       12.0110           0
   11351 QQQ  710  NMP  H4   HGA2       0.090000        1.0080           0
   11352 QQQ  710  NMP  H5   HGA2       0.090000        1.0080           0
   11353 QQQ  710  NMP  C4   CG3C52    -0.233000       12.0110           0
   11354 QQQ  710  NMP  H6   HGA2       0.090000        1.0080           0
   11355 QQQ  710  NMP  H7   HGA2       0.090000        1.0080           0
   11356 QQQ  710  NMP  C5   CG3C52    -0.027000       12.0110           0
   11357 QQQ  710  NMP  H8   HGA2       0.090000        1.0080           0
   11358 QQQ  710  NMP  H9   HGA2       0.090000        1.0080           0
   11359 QQQ  710  NMP  C6   CG2R53     0.286000       12.0110           0
   11360 QQQ  710  NMP  O7   OG2D1     -0.500000       15.9990           0
   11361 QQQ  711  NMP  C1   CG331     -0.161000       12.0110           0
   11362 QQQ  711  NMP  H1   HGA3       0.090000        1.0080           0
   11363 QQQ  711  NMP  H2   HGA3       0.090000        1.0080           0
   11364 QQQ  711  NMP  H3   HGA3       0.090000        1.0080           0
   11365 QQQ  711  NMP  N2   NG2R53    -0.098000       14.0070           0
   11366 QQQ  711  NMP  C3   CG3C52    -0.077000       12.0110           0
   11367 QQQ  711  NMP  H4   HGA2       0.090000        1.0080           0
   11368 QQQ  711  NMP  H5   HGA2       0.090000        1.0080           0
   11369 QQQ  711  NMP  C4   CG3C52    -0.233000       12.0110           0
   11370 QQQ  711  NMP  H6   HGA2       0.090000        1.0080           0
   11371 QQQ  711  NMP  H7   HGA2       0.090000        1.0080           0
   11372 QQQ  711  NMP  C5   CG3C52    -0.027000       12.0110           0
   11373 QQQ  711  NMP  H8   HGA2       0.090000        1.0080           0
   11374 QQQ  711  NMP  H9   HGA2       0.090000        1.0080           0
   11375 QQQ  711  NMP  C6   CG2R53     0.286000       12.0110           0
   11376 QQQ  711  NMP  O7   OG2D1     -0.500000       15.9990           0
   11377 QQQ  712  NMP  C1   CG331     -0.161000       12.0110           0
   11378 QQQ  712  NMP  H1   HGA3       0.090000        1.0080           0
   11379 QQQ  712  NMP  H2   HGA3       0.090000        1.0080           0
   11380 QQQ  712  NMP  H3   HGA3       0.090000        1.0080           0
   11381 QQQ  712  NMP  N2   NG2R53    -0.098000       14.0070           0
   11382 QQQ  712  NMP  C3   CG3C52    -0.077000       12.0110           0
   11383 QQQ  712  NMP  H4   HGA2       0.090000        1.0080           0
   11384 QQQ  712  NMP  H5   HGA2       0.090000        1.0080           0
   11385 QQQ  712  NMP  C4   CG3C52    -0.233000       12.0110           0
   11386 QQQ  712  NMP  H6   HGA2       0.090000        1.0080           0
   11387 QQQ  712  NMP  H7   HGA2       0.090000        1.0080           0
   11388 QQQ  712  NMP  C5   CG3C52    -0.027000       12.0110           0
   11389 QQQ  712  NMP  H8   HGA2       0.090000        1.0080           0
   11390 QQQ  712  NMP  H9   HGA2       0.090000        1.0080           0
   11391 QQQ  712  NMP  C6   CG2R53     0.286000       12.0110           0
   11392 QQQ  712  NMP  O7   OG2D1     -0.500000       15.9990           0
   11393 QQQ  713  NMP  C1   CG331     -0.161000       12.0110           0
   11394 QQQ  713  NMP  H1   HGA3       0.090000        1.0080           0
   11395 QQQ  713  NMP  H2   HGA3       0.090000        1.0080           0
   11396 QQQ  713  NMP  H3   HGA3       0.090000        1.0080           0
   11397 QQQ  713  NMP  N2   NG2R53    -0.098000       14.0070           0
   11398 QQQ  713  NMP  C3   CG3C52    -0.077000       12.0110           0
   11399 QQQ  713  NMP  H4   HGA2       0.090000        1.0080           0
   11400 QQQ  713  NMP  H5   HGA2       0.090000        1.0080           0
   11401 QQQ  713  NMP  C4   CG3C52    -0.233000       12.0110           0
   11402 QQQ  713  NMP  H6   HGA2       0.090000        1.0080           0
   11403 QQQ  713  NMP  H7   HGA2       0.090000        1.0080           0
   11404 QQQ  713  NMP  C5   CG3C52    -0.027000       12.0110           0
   11405 QQQ  713  NMP  H8   HGA2       0.090000        1.0080           0
   11406 QQQ  713  NMP  H9   HGA2       0.090000        1.0080           0
   11407 QQQ  713  NMP  C6   CG2R53     0.286000       12.0110           0
   11408 QQQ  713  NMP  O7   OG2D1     -0.500000       15.9990           0
   11409 QQQ  714  NMP  C1   CG331     -0.161000       12.0110           0
   11410 QQQ  714  NMP  H1   HGA3       0.090000        1.0080           0
   11411 QQQ  714  NMP  H2   HGA3       0.090000        1.0080           0
   11412 QQQ  714  NMP  H3   HGA3       0.090000        1.0080           0
   11413 QQQ  714  NMP  N2   NG2R53    -0.098000       14.0070           0
   11414 QQQ  714  NMP  C3   CG3C52    -0.077000       12.0110           0
   11415 QQQ  714  NMP  H4   HGA2       0.090000        1.0080           0
   11416 QQQ  714  NMP  H5   HGA2       0.090000        1.0080           0
   11417 QQQ  714  NMP  C4   CG3C52    -0.233000       12.0110           0
   11418 QQQ  714  NMP  H6   HGA2       0.090000        1.0080           0
   11419 QQQ  714  NMP  H7   HGA2       0.090000        1.0080           0
   11420 QQQ  714  NMP  C5   CG3C52    -0.027000       12.0110           0
   11421 QQQ  714  NMP  H8   HGA2       0.090000        1.0080           0
   11422 QQQ  714  NMP  H9   HGA2       0.090000        1.0080           0
   11423 QQQ  714  NMP  C6   CG2R53     0.286000       12.0110           0
   11424 QQQ  714  NMP  O7   OG2D1     -0.500000       15.9990           0
   11425 QQQ  715  NMP  C1   CG331     -0.161000       12.0110           0
   11426 QQQ  715  NMP  H1   HGA3       0.090000        1.0080           0
   11427 QQQ  715  NMP  H2   HGA3       0.090000        1.0080           0
   11428 QQQ  715  NMP  H3   HGA3       0.090000        1.0080           0
   11429 QQQ  715  NMP  N2   NG2R53    -0.098000       14.0070           0
   11430 QQQ  715  NMP  C3   CG3C52    -0.077000       12.0110           0
   11431 QQQ  715  NMP  H4   HGA2       0.090000        1.0080           0
   11432 QQQ  715  NMP  H5   HGA2       0.090000        1.0080           0
   11433 QQQ  715  NMP  C4   CG3C52    -0.233000       12.0110           0
   11434 QQQ  715  NMP  H6   HGA2       0.090000        1.0080           0
   11435 QQQ  715  NMP  H7   HGA2       0.090000        1.0080           0
   11436 QQQ  715  NMP  C5   CG3C52    -0.027000       12.0110           0
   11437 QQQ  715  NMP  H8   HGA2       0.090000        1.0080           0
   11438 QQQ  715  NMP  H9   HGA2       0.090000        1.0080           0
   11439 QQQ  715  NMP  C6   CG2R53     0.286000       12.0110           0
   11440 QQQ  715  NMP  O7   OG2D1     -0.500000       15.9990           0
   11441 QQQ  716  NMP  C1   CG331     -0.161000       12.0110           0
   11442 QQQ  716  NMP  H1   HGA3       0.090000        1.0080           0
   11443 QQQ  716  NMP  H2   HGA3       0.090000        1.0080           0
   11444 QQQ  716  NMP  H3   HGA3       0.090000        1.0080           0
   11445 QQQ  716  NMP  N2   NG2R53    -0.098000       14.0070           0
   11446 QQQ  716  NMP  C3   CG3C52    -0.077000       12.0110           0
   11447 QQQ  716  NMP  H4   HGA2       0.090000        1.0080           0
   11448 QQQ  716  NMP  H5   HGA2       0.090000        1.0080           0
   11449 QQQ  716  NMP  C4   CG3C52    -0.233000       12.0110           0
   11450 QQQ  716  NMP  H6   HGA2       0.090000        1.0080           0
   11451 QQQ  716  NMP  H7   HGA2       0.090000        1.0080           0
   11452 QQQ  716  NMP  C5   CG3C52    -0.027000       12.0110           0
   11453 QQQ  716  NMP  H8   HGA2       0.090000        1.0080           0
   11454 QQQ  716  NMP  H9   HGA2       0.090000        1.0080           0
   11455 QQQ  716  NMP  C6   CG2R53     0.286000       12.0110           0
   11456 QQQ  716  NMP  O7   OG2D1     -0.500000       15.9990           0
   11457 QQQ  717  NMP  C1   CG331     -0.161000       12.0110           0
   11458 QQQ  717  NMP  H1   HGA3       0.090000        1.0080           0
   11459 QQQ  717  NMP  H2   HGA3       0.090000        1.0080           0
   11460 QQQ  717  NMP  H3   HGA3       0.090000        1.0080           0
   11461 QQQ  717  NMP  N2   NG2R53    -0.098000       14.0070           0
   11462 QQQ  717  NMP  C3   CG3C52    -0.077000       12.0110           0
   11463 QQQ  717  NMP  H4   HGA2       0.090000        1.0080           0
   11464 QQQ  717  NMP  H5   HGA2       0.090000        1.0080           0
   11465 QQQ  717  NMP  C4   CG3C52    -0.233000       12.0110           0
   11466 QQQ  717  NMP  H6   HGA2       0.090000        1.0080           0
   11467 QQQ  717  NMP  H7   HGA2       0.090000        1.0080           0
   11468 QQQ  717  NMP  C5   CG3C52    -0.027000       12.0110           0
   11469 QQQ  717  NMP  H8   HGA2       0.090000        1.0080           0
   11470 QQQ  717  NMP  H9   HGA2       0.090000        1.0080           0
   11471 QQQ  717  NMP  C6   CG2R53     0.286000       12.0110           0
   11472 QQQ  717  NMP  O7   OG2D1     -0.500000       15.9990           0
   11473 QQQ  718  NMP  C1   CG331     -0.161000       12.0110           0
   11474 QQQ  718  NMP  H1   HGA3       0.090000        1.0080           0
   11475 QQQ  718  NMP  H2   HGA3       0.090000        1.0080           0
   11476 QQQ  718  NMP  H3   HGA3       0.090000        1.0080           0
   11477 QQQ  718  NMP  N2   NG2R53    -0.098000       14.0070           0
   11478 QQQ  718  NMP  C3   CG3C52    -0.077000       12.0110           0
   11479 QQQ  718  NMP  H4   HGA2       0.090000        1.0080           0
   11480 QQQ  718  NMP  H5   HGA2       0.090000        1.0080           0
   11481 QQQ  718  NMP  C4   CG3C52    -0.233000       12.0110           0
   11482 QQQ  718  NMP  H6   HGA2       0.090000        1.0080           0
   11483 QQQ  718  NMP  H7   HGA2       0.090000        1.0080           0
   11484 QQQ  718  NMP  C5   CG3C52    -0.027000       12.0110           0
   11485 QQQ  718  NMP  H8   HGA2       0.090000        1.0080           0
   11486 QQQ  718  NMP  H9   HGA2       0.090000        1.0080           0
   11487 QQQ  718  NMP  C6   CG2R53     0.286000       12.0110           0
   11488 QQQ  718  NMP  O7   OG2D1     -0.500000       15.9990           0
   11489 QQQ  719  NMP  C1   CG331     -0.161000       12.0110           0
   11490 QQQ  719  NMP  H1   HGA3       0.090000        1.0080           0
   11491 QQQ  719  NMP  H2   HGA3       0.090000        1.0080           0
   11492 QQQ  719  NMP  H3   HGA3       0.090000        1.0080           0
   11493 QQQ  719  NMP  N2   NG2R53    -0.098000       14.0070           0
   11494 QQQ  719  NMP  C3   CG3C52    -0.077000       12.0110           0
   11495 QQQ  719  NMP  H4   HGA2       0.090000        1.0080           0
   11496 QQQ  719  NMP  H5   HGA2       0.090000        1.0080           0
   11497 QQQ  719  NMP  C4   CG3C52    -0.233000       12.0110           0
   11498 QQQ  719  NMP  H6   HGA2       0.090000        1.0080           0
   11499 QQQ  719  NMP  H7   HGA2       0.090000        1.0080           0
   11500 QQQ  719  NMP  C5   CG3C52    -0.027000       12.0110           0
   11501 QQQ  719  NMP  H8   HGA2       0.090000        1.0080           0
   11502 QQQ  719  NMP  H9   HGA2       0.090000        1.0080           0
   11503 QQQ  719  NMP  C6   CG2R53     0.286000       12.0110           0
   11504 QQQ  719  NMP  O7   OG2D1     -0.500000       15.9990           0
   11505 QQQ  720  NMP  C1   CG331     -0.161000       12.0110           0
   11506 QQQ  720  NMP  H1   HGA3       0.090000        1.0080           0
   11507 QQQ  720  NMP  H2   HGA3       0.090000        1.0080           0
   11508 QQQ  720  NMP  H3   HGA3       0.090000        1.0080           0
   11509 QQQ  720  NMP  N2   NG2R53    -0.098000       14.0070           0
   11510 QQQ  720  NMP  C3   CG3C52    -0.077000       12.0110           0
   11511 QQQ  720  NMP  H4   HGA2       0.090000        1.0080           0
   11512 QQQ  720  NMP  H5   HGA2       0.090000        1.0080           0
   11513 QQQ  720  NMP  C4   CG3C52    -0.233000       12.0110           0
   11514 QQQ  720  NMP  H6   HGA2       0.090000        1.0080           0
   11515 QQQ  720  NMP  H7   HGA2       0.090000        1.0080           0
   11516 QQQ  720  NMP  C5   CG3C52    -0.027000       12.0110           0
   11517 QQQ  720  NMP  H8   HGA2       0.090000        1.0080           0
   11518 QQQ  720  NMP  H9   HGA2       0.090000        1.0080           0
   11519 QQQ  720  NMP  C6   CG2R53     0.286000       12.0110           0
   11520 QQQ  720  NMP  O7   OG2D1     -0.500000       15.9990           0
   11521 QQQ  721  NMP  C1   CG331     -0.161000       12.0110           0
   11522 QQQ  721  NMP  H1   HGA3       0.090000        1.0080           0
   11523 QQQ  721  NMP  H2   HGA3       0.090000        1.0080           0
   11524 QQQ  721  NMP  H3   HGA3       0.090000        1.0080           0
   11525 QQQ  721  NMP  N2   NG2R53    -0.098000       14.0070           0
   11526 QQQ  721  NMP  C3   CG3C52    -0.077000       12.0110           0
   11527 QQQ  721  NMP  H4   HGA2       0.090000        1.0080           0
   11528 QQQ  721  NMP  H5   HGA2       0.090000        1.0080           0
   11529 QQQ  721  NMP  C4   CG3C52    -0.233000       12.0110           0
   11530 QQQ  721  NMP  H6   HGA2       0.090000        1.0080           0
   11531 QQQ  721  NMP  H7   HGA2       0.090000        1.0080           0
   11532 QQQ  721  NMP  C5   CG3C52    -0.027000       12.0110           0
   11533 QQQ  721  NMP  H8   HGA2       0.090000        1.0080           0
   11534 QQQ  721  NMP  H9   HGA2       0.090000        1.0080           0
   11535 QQQ  721  NMP  C6   CG2R53     0.286000       12.0110           0
   11536 QQQ  721  NMP  O7   OG2D1     -0.500000       15.9990           0
   11537 QQQ  722  NMP  C1   CG331     -0.161000       12.0110           0
   11538 QQQ  722  NMP  H1   HGA3       0.090000        1.0080           0
   11539 QQQ  722  NMP  H2   HGA3       0.090000        1.0080           0
   11540 QQQ  722  NMP  H3   HGA3       0.090000        1.0080           0
   11541 QQQ  722  NMP  N2   NG2R53    -0.098000       14.0070           0
   11542 QQQ  722  NMP  C3   CG3C52    -0.077000       12.0110           0
   11543 QQQ  722  NMP  H4   HGA2       0.090000        1.0080           0
   11544 QQQ  722  NMP  H5   HGA2       0.090000        1.0080           0
   11545 QQQ  722  NMP  C4   CG3C52    -0.233000       12.0110           0
   11546 QQQ  722  NMP  H6   HGA2       0.090000        1.0080           0
   11547 QQQ  722  NMP  H7   HGA2       0.090000        1.0080           0
   11548 QQQ  722  NMP  C5   CG3C52    -0.027000       12.0110           0
   11549 QQQ  722  NMP  H8   HGA2       0.090000        1.0080           0
   11550 QQQ  722  NMP  H9   HGA2       0.090000        1.0080           0
   11551 QQQ  722  NMP  C6   CG2R53     0.286000       12.0110           0
   11552 QQQ  722  NMP  O7   OG2D1     -0.500000       15.9990           0
   11553 QQQ  723  NMP  C1   CG331     -0.161000       12.0110           0
   11554 QQQ  723  NMP  H1   HGA3       0.090000        1.0080           0
   11555 QQQ  723  NMP  H2   HGA3       0.090000        1.0080           0
   11556 QQQ  723  NMP  H3   HGA3       0.090000        1.0080           0
   11557 QQQ  723  NMP  N2   NG2R53    -0.098000       14.0070           0
   11558 QQQ  723  NMP  C3   CG3C52    -0.077000       12.0110           0
   11559 QQQ  723  NMP  H4   HGA2       0.090000        1.0080           0
   11560 QQQ  723  NMP  H5   HGA2       0.090000        1.0080           0
   11561 QQQ  723  NMP  C4   CG3C52    -0.233000       12.0110           0
   11562 QQQ  723  NMP  H6   HGA2       0.090000        1.0080           0
   11563 QQQ  723  NMP  H7   HGA2       0.090000        1.0080           0
   11564 QQQ  723  NMP  C5   CG3C52    -0.027000       12.0110           0
   11565 QQQ  723  NMP  H8   HGA2       0.090000        1.0080           0
   11566 QQQ  723  NMP  H9   HGA2       0.090000        1.0080           0
   11567 QQQ  723  NMP  C6   CG2R53     0.286000       12.0110           0
   11568 QQQ  723  NMP  O7   OG2D1     -0.500000       15.9990           0
   11569 QQQ  724  NMP  C1   CG331     -0.161000       12.0110           0
   11570 QQQ  724  NMP  H1   HGA3       0.090000        1.0080           0
   11571 QQQ  724  NMP  H2   HGA3       0.090000        1.0080           0
   11572 QQQ  724  NMP  H3   HGA3       0.090000        1.0080           0
   11573 QQQ  724  NMP  N2   NG2R53    -0.098000       14.0070           0
   11574 QQQ  724  NMP  C3   CG3C52    -0.077000       12.0110           0
   11575 QQQ  724  NMP  H4   HGA2       0.090000        1.0080           0
   11576 QQQ  724  NMP  H5   HGA2       0.090000        1.0080           0
   11577 QQQ  724  NMP  C4   CG3C52    -0.233000       12.0110           0
   11578 QQQ  724  NMP  H6   HGA2       0.090000        1.0080           0
   11579 QQQ  724  NMP  H7   HGA2       0.090000        1.0080           0
   11580 QQQ  724  NMP  C5   CG3C52    -0.027000       12.0110           0
   11581 QQQ  724  NMP  H8   HGA2       0.090000        1.0080           0
   11582 QQQ  724  NMP  H9   HGA2       0.090000        1.0080           0
   11583 QQQ  724  NMP  C6   CG2R53     0.286000       12.0110           0
   11584 QQQ  724  NMP  O7   OG2D1     -0.500000       15.9990           0
   11585 QQQ  725  NMP  C1   CG331     -0.161000       12.0110           0
   11586 QQQ  725  NMP  H1   HGA3       0.090000        1.0080           0
   11587 QQQ  725  NMP  H2   HGA3       0.090000        1.0080           0
   11588 QQQ  725  NMP  H3   HGA3       0.090000        1.0080           0
   11589 QQQ  725  NMP  N2   NG2R53    -0.098000       14.0070           0
   11590 QQQ  725  NMP  C3   CG3C52    -0.077000       12.0110           0
   11591 QQQ  725  NMP  H4   HGA2       0.090000        1.0080           0
   11592 QQQ  725  NMP  H5   HGA2       0.090000        1.0080           0
   11593 QQQ  725  NMP  C4   CG3C52    -0.233000       12.0110           0
   11594 QQQ  725  NMP  H6   HGA2       0.090000        1.0080           0
   11595 QQQ  725  NMP  H7   HGA2       0.090000        1.0080           0
   11596 QQQ  725  NMP  C5   CG3C52    -0.027000       12.0110           0
   11597 QQQ  725  NMP  H8   HGA2       0.090000        1.0080           0
   11598 QQQ  725  NMP  H9   HGA2       0.090000        1.0080           0
   11599 QQQ  725  NMP  C6   CG2R53     0.286000       12.0110           0
   11600 QQQ  725  NMP  O7   OG2D1     -0.500000       15.9990           0
   11601 QQQ  726  NMP  C1   CG331     -0.161000       12.0110           0
   11602 QQQ  726  NMP  H1   HGA3       0.090000        1.0080           0
   11603 QQQ  726  NMP  H2   HGA3       0.090000        1.0080           0
   11604 QQQ  726  NMP  H3   HGA3       0.090000        1.0080           0
   11605 QQQ  726  NMP  N2   NG2R53    -0.098000       14.0070           0
   11606 QQQ  726  NMP  C3   CG3C52    -0.077000       12.0110           0
   11607 QQQ  726  NMP  H4   HGA2       0.090000        1.0080           0
   11608 QQQ  726  NMP  H5   HGA2       0.090000        1.0080           0
   11609 QQQ  726  NMP  C4   CG3C52    -0.233000       12.0110           0
   11610 QQQ  726  NMP  H6   HGA2       0.090000        1.0080           0
   11611 QQQ  726  NMP  H7   HGA2       0.090000        1.0080           0
   11612 QQQ  726  NMP  C5   CG3C52    -0.027000       12.0110           0
   11613 QQQ  726  NMP  H8   HGA2       0.090000        1.0080           0
   11614 QQQ  726  NMP  H9   HGA2       0.090000        1.0080           0
   11615 QQQ  726  NMP  C6   CG2R53     0.286000       12.0110           0
   11616 QQQ  726  NMP  O7   OG2D1     -0.500000       15.9990           0
   11617 QQQ  727  NMP  C1   CG331     -0.161000       12.0110           0
   11618 QQQ  727  NMP  H1   HGA3       0.090000        1.0080           0
   11619 QQQ  727  NMP  H2   HGA3       0.090000        1.0080           0
   11620 QQQ  727  NMP  H3   HGA3       0.090000        1.0080           0
   11621 QQQ  727  NMP  N2   NG2R53    -0.098000       14.0070           0
   11622 QQQ  727  NMP  C3   CG3C52    -0.077000       12.0110           0
   11623 QQQ  727  NMP  H4   HGA2       0.090000        1.0080           0
   11624 QQQ  727  NMP  H5   HGA2       0.090000        1.0080           0
   11625 QQQ  727  NMP  C4   CG3C52    -0.233000       12.0110           0
   11626 QQQ  727  NMP  H6   HGA2       0.090000        1.0080           0
   11627 QQQ  727  NMP  H7   HGA2       0.090000        1.0080           0
   11628 QQQ  727  NMP  C5   CG3C52    -0.027000       12.0110           0
   11629 QQQ  727  NMP  H8   HGA2       0.090000        1.0080           0
   11630 QQQ  727  NMP  H9   HGA2       0.090000        1.0080           0
   11631 QQQ  727  NMP  C6   CG2R53     0.286000       12.0110           0
   11632 QQQ  727  NMP  O7   OG2D1     -0.500000       15.9990           0
   11633 QQQ  728  NMP  C1   CG331     -0.161000       12.0110           0
   11634 QQQ  728  NMP  H1   HGA3       0.090000        1.0080           0
   11635 QQQ  728  NMP  H2   HGA3       0.090000        1.0080           0
   11636 QQQ  728  NMP  H3   HGA3       0.090000        1.0080           0
   11637 QQQ  728  NMP  N2   NG2R53    -0.098000       14.0070           0
   11638 QQQ  728  NMP  C3   CG3C52    -0.077000       12.0110           0
   11639 QQQ  728  NMP  H4   HGA2       0.090000        1.0080           0
   11640 QQQ  728  NMP  H5   HGA2       0.090000        1.0080           0
   11641 QQQ  728  NMP  C4   CG3C52    -0.233000       12.0110           0
   11642 QQQ  728  NMP  H6   HGA2       0.090000        1.0080           0
   11643 QQQ  728  NMP  H7   HGA2       0.090000        1.0080           0
   11644 QQQ  728  NMP  C5   CG3C52    -0.027000       12.0110           0
   11645 QQQ  728  NMP  H8   HGA2       0.090000        1.0080           0
   11646 QQQ  728  NMP  H9   HGA2       0.090000        1.0080           0
   11647 QQQ  728  NMP  C6   CG2R53     0.286000       12.0110           0
   11648 QQQ  728  NMP  O7   OG2D1     -0.500000       15.9990           0
   11649 QQQ  729  NMP  C1   CG331     -0.161000       12.0110           0
   11650 QQQ  729  NMP  H1   HGA3       0.090000        1.0080           0
   11651 QQQ  729  NMP  H2   HGA3       0.090000        1.0080           0
   11652 QQQ  729  NMP  H3   HGA3       0.090000        1.0080           0
   11653 QQQ  729  NMP  N2   NG2R53    -0.098000       14.0070           0
   11654 QQQ  729  NMP  C3   CG3C52    -0.077000       12.0110           0
   11655 QQQ  729  NMP  H4   HGA2       0.090000        1.0080           0
   11656 QQQ  729  NMP  H5   HGA2       0.090000        1.0080           0
   11657 QQQ  729  NMP  C4   CG3C52    -0.233000       12.0110           0
   11658 QQQ  729  NMP  H6   HGA2       0.090000        1.0080           0
   11659 QQQ  729  NMP  H7   HGA2       0.090000        1.0080           0
   11660 QQQ  729  NMP  C5   CG3C52    -0.027000       12.0110           0
   11661 QQQ  729  NMP  H8   HGA2       0.090000        1.0080           0
   11662 QQQ  729  NMP  H9   HGA2       0.090000        1.0080           0
   11663 QQQ  729  NMP  C6   CG2R53     0.286000       12.0110           0
   11664 QQQ  729  NMP  O7   OG2D1     -0.500000       15.9990           0
   11665 QQQ  730  NMP  C1   CG331     -0.161000       12.0110           0
   11666 QQQ  730  NMP  H1   HGA3       0.090000        1.0080           0
   11667 QQQ  730  NMP  H2   HGA3       0.090000        1.0080           0
   11668 QQQ  730  NMP  H3   HGA3       0.090000        1.0080           0
   11669 QQQ  730  NMP  N2   NG2R53    -0.098000       14.0070           0
   11670 QQQ  730  NMP  C3   CG3C52    -0.077000       12.0110           0
   11671 QQQ  730  NMP  H4   HGA2       0.090000        1.0080           0
   11672 QQQ  730  NMP  H5   HGA2       0.090000        1.0080           0
   11673 QQQ  730  NMP  C4   CG3C52    -0.233000       12.0110           0
   11674 QQQ  730  NMP  H6   HGA2       0.090000        1.0080           0
   11675 QQQ  730  NMP  H7   HGA2       0.090000        1.0080           0
   11676 QQQ  730  NMP  C5   CG3C52    -0.027000       12.0110           0
   11677 QQQ  730  NMP  H8   HGA2       0.090000        1.0080           0
   11678 QQQ  730  NMP  H9   HGA2       0.090000        1.0080           0
   11679 QQQ  730  NMP  C6   CG2R53     0.286000       12.0110           0
   11680 QQQ  730  NMP  O7   OG2D1     -0.500000       15.9990           0
   11681 QQQ  731  NMP  C1   CG331     -0.161000       12.0110           0
   11682 QQQ  731  NMP  H1   HGA3       0.090000        1.0080           0
   11683 QQQ  731  NMP  H2   HGA3       0.090000        1.0080           0
   11684 QQQ  731  NMP  H3   HGA3       0.090000        1.0080           0
   11685 QQQ  731  NMP  N2   NG2R53    -0.098000       14.0070           0
   11686 QQQ  731  NMP  C3   CG3C52    -0.077000       12.0110           0
   11687 QQQ  731  NMP  H4   HGA2       0.090000        1.0080           0
   11688 QQQ  731  NMP  H5   HGA2       0.090000        1.0080           0
   11689 QQQ  731  NMP  C4   CG3C52    -0.233000       12.0110           0
   11690 QQQ  731  NMP  H6   HGA2       0.090000        1.0080           0
   11691 QQQ  731  NMP  H7   HGA2       0.090000        1.0080           0
   11692 QQQ  731  NMP  C5   CG3C52    -0.027000       12.0110           0
   11693 QQQ  731  NMP  H8   HGA2       0.090000        1.0080           0
   11694 QQQ  731  NMP  H9   HGA2       0.090000        1.0080           0
   11695 QQQ  731  NMP  C6   CG2R53     0.286000       12.0110           0
   11696 QQQ  731  NMP  O7   OG2D1     -0.500000       15.9990           0
   11697 QQQ  732  NMP  C1   CG331     -0.161000       12.0110           0
   11698 QQQ  732  NMP  H1   HGA3       0.090000        1.0080           0
   11699 QQQ  732  NMP  H2   HGA3       0.090000        1.0080           0
   11700 QQQ  732  NMP  H3   HGA3       0.090000        1.0080           0
   11701 QQQ  732  NMP  N2   NG2R53    -0.098000       14.0070           0
   11702 QQQ  732  NMP  C3   CG3C52    -0.077000       12.0110           0
   11703 QQQ  732  NMP  H4   HGA2       0.090000        1.0080           0
   11704 QQQ  732  NMP  H5   HGA2       0.090000        1.0080           0
   11705 QQQ  732  NMP  C4   CG3C52    -0.233000       12.0110           0
   11706 QQQ  732  NMP  H6   HGA2       0.090000        1.0080           0
   11707 QQQ  732  NMP  H7   HGA2       0.090000        1.0080           0
   11708 QQQ  732  NMP  C5   CG3C52    -0.027000       12.0110           0
   11709 QQQ  732  NMP  H8   HGA2       0.090000        1.0080           0
   11710 QQQ  732  NMP  H9   HGA2       0.090000        1.0080           0
   11711 QQQ  732  NMP  C6   CG2R53     0.286000       12.0110           0
   11712 QQQ  732  NMP  O7   OG2D1     -0.500000       15.9990           0
   11713 QQQ  733  NMP  C1   CG331     -0.161000       12.0110           0
   11714 QQQ  733  NMP  H1   HGA3       0.090000        1.0080           0
   11715 QQQ  733  NMP  H2   HGA3       0.090000        1.0080           0
   11716 QQQ  733  NMP  H3   HGA3       0.090000        1.0080           0
   11717 QQQ  733  NMP  N2   NG2R53    -0.098000       14.0070           0
   11718 QQQ  733  NMP  C3   CG3C52    -0.077000       12.0110           0
   11719 QQQ  733  NMP  H4   HGA2       0.090000        1.0080           0
   11720 QQQ  733  NMP  H5   HGA2       0.090000        1.0080           0
   11721 QQQ  733  NMP  C4   CG3C52    -0.233000       12.0110           0
   11722 QQQ  733  NMP  H6   HGA2       0.090000        1.0080           0
   11723 QQQ  733  NMP  H7   HGA2       0.090000        1.0080           0
   11724 QQQ  733  NMP  C5   CG3C52    -0.027000       12.0110           0
   11725 QQQ  733  NMP  H8   HGA2       0.090000        1.0080           0
   11726 QQQ  733  NMP  H9   HGA2       0.090000        1.0080           0
   11727 QQQ  733  NMP  C6   CG2R53     0.286000       12.0110           0
   11728 QQQ  733  NMP  O7   OG2D1     -0.500000       15.9990           0
   11729 QQQ  734  NMP  C1   CG331     -0.161000       12.0110           0
   11730 QQQ  734  NMP  H1   HGA3       0.090000        1.0080           0
   11731 QQQ  734  NMP  H2   HGA3       0.090000        1.0080           0
   11732 QQQ  734  NMP  H3   HGA3       0.090000        1.0080           0
   11733 QQQ  734  NMP  N2   NG2R53    -0.098000       14.0070           0
   11734 QQQ  734  NMP  C3   CG3C52    -0.077000       12.0110           0
   11735 QQQ  734  NMP  H4   HGA2       0.090000        1.0080           0
   11736 QQQ  734  NMP  H5   HGA2       0.090000        1.0080           0
   11737 QQQ  734  NMP  C4   CG3C52    -0.233000       12.0110           0
   11738 QQQ  734  NMP  H6   HGA2       0.090000        1.0080           0
   11739 QQQ  734  NMP  H7   HGA2       0.090000        1.0080           0
   11740 QQQ  734  NMP  C5   CG3C52    -0.027000       12.0110           0
   11741 QQQ  734  NMP  H8   HGA2       0.090000        1.0080           0
   11742 QQQ  734  NMP  H9   HGA2       0.090000        1.0080           0
   11743 QQQ  734  NMP  C6   CG2R53     0.286000       12.0110           0
   11744 QQQ  734  NMP  O7   OG2D1     -0.500000       15.9990           0
   11745 QQQ  735  NMP  C1   CG331     -0.161000       12.0110           0
   11746 QQQ  735  NMP  H1   HGA3       0.090000        1.0080           0
   11747 QQQ  735  NMP  H2   HGA3       0.090000        1.0080           0
   11748 QQQ  735  NMP  H3   HGA3       0.090000        1.0080           0
   11749 QQQ  735  NMP  N2   NG2R53    -0.098000       14.0070           0
   11750 QQQ  735  NMP  C3   CG3C52    -0.077000       12.0110           0
   11751 QQQ  735  NMP  H4   HGA2       0.090000        1.0080           0
   11752 QQQ  735  NMP  H5   HGA2       0.090000        1.0080           0
   11753 QQQ  735  NMP  C4   CG3C52    -0.233000       12.0110           0
   11754 QQQ  735  NMP  H6   HGA2       0.090000        1.0080           0
   11755 QQQ  735  NMP  H7   HGA2       0.090000        1.0080           0
   11756 QQQ  735  NMP  C5   CG3C52    -0.027000       12.0110           0
   11757 QQQ  735  NMP  H8   HGA2       0.090000        1.0080           0
   11758 QQQ  735  NMP  H9   HGA2       0.090000        1.0080           0
   11759 QQQ  735  NMP  C6   CG2R53     0.286000       12.0110           0
   11760 QQQ  735  NMP  O7   OG2D1     -0.500000       15.9990           0
   11761 QQQ  736  NMP  C1   CG331     -0.161000       12.0110           0
   11762 QQQ  736  NMP  H1   HGA3       0.090000        1.0080           0
   11763 QQQ  736  NMP  H2   HGA3       0.090000        1.0080           0
   11764 QQQ  736  NMP  H3   HGA3       0.090000        1.0080           0
   11765 QQQ  736  NMP  N2   NG2R53    -0.098000       14.0070           0
   11766 QQQ  736  NMP  C3   CG3C52    -0.077000       12.0110           0
   11767 QQQ  736  NMP  H4   HGA2       0.090000        1.0080           0
   11768 QQQ  736  NMP  H5   HGA2       0.090000        1.0080           0
   11769 QQQ  736  NMP  C4   CG3C52    -0.233000       12.0110           0
   11770 QQQ  736  NMP  H6   HGA2       0.090000        1.0080           0
   11771 QQQ  736  NMP  H7   HGA2       0.090000        1.0080           0
   11772 QQQ  736  NMP  C5   CG3C52    -0.027000       12.0110           0
   11773 QQQ  736  NMP  H8   HGA2       0.090000        1.0080           0
   11774 QQQ  736  NMP  H9   HGA2       0.090000        1.0080           0
   11775 QQQ  736  NMP  C6   CG2R53     0.286000       12.0110           0
   11776 QQQ  736  NMP  O7   OG2D1     -0.500000       15.9990           0
   11777 QQQ  737  NMP  C1   CG331     -0.161000       12.0110           0
   11778 QQQ  737  NMP  H1   HGA3       0.090000        1.0080           0
   11779 QQQ  737  NMP  H2   HGA3       0.090000        1.0080           0
   11780 QQQ  737  NMP  H3   HGA3       0.090000        1.0080           0
   11781 QQQ  737  NMP  N2   NG2R53    -0.098000       14.0070           0
   11782 QQQ  737  NMP  C3   CG3C52    -0.077000       12.0110           0
   11783 QQQ  737  NMP  H4   HGA2       0.090000        1.0080           0
   11784 QQQ  737  NMP  H5   HGA2       0.090000        1.0080           0
   11785 QQQ  737  NMP  C4   CG3C52    -0.233000       12.0110           0
   11786 QQQ  737  NMP  H6   HGA2       0.090000        1.0080           0
   11787 QQQ  737  NMP  H7   HGA2       0.090000        1.0080           0
   11788 QQQ  737  NMP  C5   CG3C52    -0.027000       12.0110           0
   11789 QQQ  737  NMP  H8   HGA2       0.090000        1.0080           0
   11790 QQQ  737  NMP  H9   HGA2       0.090000        1.0080           0
   11791 QQQ  737  NMP  C6   CG2R53     0.286000       12.0110           0
   11792 QQQ  737  NMP  O7   OG2D1     -0.500000       15.9990           0
   11793 QQQ  738  NMP  C1   CG331     -0.161000       12.0110           0
   11794 QQQ  738  NMP  H1   HGA3       0.090000        1.0080           0
   11795 QQQ  738  NMP  H2   HGA3       0.090000        1.0080           0
   11796 QQQ  738  NMP  H3   HGA3       0.090000        1.0080           0
   11797 QQQ  738  NMP  N2   NG2R53    -0.098000       14.0070           0
   11798 QQQ  738  NMP  C3   CG3C52    -0.077000       12.0110           0
   11799 QQQ  738  NMP  H4   HGA2       0.090000        1.0080           0
   11800 QQQ  738  NMP  H5   HGA2       0.090000        1.0080           0
   11801 QQQ  738  NMP  C4   CG3C52    -0.233000       12.0110           0
   11802 QQQ  738  NMP  H6   HGA2       0.090000        1.0080           0
   11803 QQQ  738  NMP  H7   HGA2       0.090000        1.0080           0
   11804 QQQ  738  NMP  C5   CG3C52    -0.027000       12.0110           0
   11805 QQQ  738  NMP  H8   HGA2       0.090000        1.0080           0
   11806 QQQ  738  NMP  H9   HGA2       0.090000        1.0080           0
   11807 QQQ  738  NMP  C6   CG2R53     0.286000       12.0110           0
   11808 QQQ  738  NMP  O7   OG2D1     -0.500000       15.9990           0
   11809 QQQ  739  NMP  C1   CG331     -0.161000       12.0110           0
   11810 QQQ  739  NMP  H1   HGA3       0.090000        1.0080           0
   11811 QQQ  739  NMP  H2   HGA3       0.090000        1.0080           0
   11812 QQQ  739  NMP  H3   HGA3       0.090000        1.0080           0
   11813 QQQ  739  NMP  N2   NG2R53    -0.098000       14.0070           0
   11814 QQQ  739  NMP  C3   CG3C52    -0.077000       12.0110           0
   11815 QQQ  739  NMP  H4   HGA2       0.090000        1.0080           0
   11816 QQQ  739  NMP  H5   HGA2       0.090000        1.0080           0
   11817 QQQ  739  NMP  C4   CG3C52    -0.233000       12.0110           0
   11818 QQQ  739  NMP  H6   HGA2       0.090000        1.0080           0
   11819 QQQ  739  NMP  H7   HGA2       0.090000        1.0080           0
   11820 QQQ  739  NMP  C5   CG3C52    -0.027000       12.0110           0
   11821 QQQ  739  NMP  H8   HGA2       0.090000        1.0080           0
   11822 QQQ  739  NMP  H9   HGA2       0.090000        1.0080           0
   11823 QQQ  739  NMP  C6   CG2R53     0.286000       12.0110           0
   11824 QQQ  739  NMP  O7   OG2D1     -0.500000       15.9990           0
   11825 QQQ  740  NMP  C1   CG331     -0.161000       12.0110           0
   11826 QQQ  740  NMP  H1   HGA3       0.090000        1.0080           0
   11827 QQQ  740  NMP  H2   HGA3       0.090000        1.0080           0
   11828 QQQ  740  NMP  H3   HGA3       0.090000        1.0080           0
   11829 QQQ  740  NMP  N2   NG2R53    -0.098000       14.0070           0
   11830 QQQ  740  NMP  C3   CG3C52    -0.077000       12.0110           0
   11831 QQQ  740  NMP  H4   HGA2       0.090000        1.0080           0
   11832 QQQ  740  NMP  H5   HGA2       0.090000        1.0080           0
   11833 QQQ  740  NMP  C4   CG3C52    -0.233000       12.0110           0
   11834 QQQ  740  NMP  H6   HGA2       0.090000        1.0080           0
   11835 QQQ  740  NMP  H7   HGA2       0.090000        1.0080           0
   11836 QQQ  740  NMP  C5   CG3C52    -0.027000       12.0110           0
   11837 QQQ  740  NMP  H8   HGA2       0.090000        1.0080           0
   11838 QQQ  740  NMP  H9   HGA2       0.090000        1.0080           0
   11839 QQQ  740  NMP  C6   CG2R53     0.286000       12.0110           0
   11840 QQQ  740  NMP  O7   OG2D1     -0.500000       15.9990           0
   11841 QQQ  741  NMP  C1   CG331     -0.161000       12.0110           0
   11842 QQQ  741  NMP  H1   HGA3       0.090000        1.0080           0
   11843 QQQ  741  NMP  H2   HGA3       0.090000        1.0080           0
   11844 QQQ  741  NMP  H3   HGA3       0.090000        1.0080           0
   11845 QQQ  741  NMP  N2   NG2R53    -0.098000       14.0070           0
   11846 QQQ  741  NMP  C3   CG3C52    -0.077000       12.0110           0
   11847 QQQ  741  NMP  H4   HGA2       0.090000        1.0080           0
   11848 QQQ  741  NMP  H5   HGA2       0.090000        1.0080           0
   11849 QQQ  741  NMP  C4   CG3C52    -0.233000       12.0110           0
   11850 QQQ  741  NMP  H6   HGA2       0.090000        1.0080           0
   11851 QQQ  741  NMP  H7   HGA2       0.090000        1.0080           0
   11852 QQQ  741  NMP  C5   CG3C52    -0.027000       12.0110           0
   11853 QQQ  741  NMP  H8   HGA2       0.090000        1.0080           0
   11854 QQQ  741  NMP  H9   HGA2       0.090000        1.0080           0
   11855 QQQ  741  NMP  C6   CG2R53     0.286000       12.0110           0
   11856 QQQ  741  NMP  O7   OG2D1     -0.500000       15.9990           0
   11857 QQQ  742  NMP  C1   CG331     -0.161000       12.0110           0
   11858 QQQ  742  NMP  H1   HGA3       0.090000        1.0080           0
   11859 QQQ  742  NMP  H2   HGA3       0.090000        1.0080           0
   11860 QQQ  742  NMP  H3   HGA3       0.090000        1.0080           0
   11861 QQQ  742  NMP  N2   NG2R53    -0.098000       14.0070           0
   11862 QQQ  742  NMP  C3   CG3C52    -0.077000       12.0110           0
   11863 QQQ  742  NMP  H4   HGA2       0.090000        1.0080           0
   11864 QQQ  742  NMP  H5   HGA2       0.090000        1.0080           0
   11865 QQQ  742  NMP  C4   CG3C52    -0.233000       12.0110           0
   11866 QQQ  742  NMP  H6   HGA2       0.090000        1.0080           0
   11867 QQQ  742  NMP  H7   HGA2       0.090000        1.0080           0
   11868 QQQ  742  NMP  C5   CG3C52    -0.027000       12.0110           0
   11869 QQQ  742  NMP  H8   HGA2       0.090000        1.0080           0
   11870 QQQ  742  NMP  H9   HGA2       0.090000        1.0080           0
   11871 QQQ  742  NMP  C6   CG2R53     0.286000       12.0110           0
   11872 QQQ  742  NMP  O7   OG2D1     -0.500000       15.9990           0
   11873 QQQ  743  NMP  C1   CG331     -0.161000       12.0110           0
   11874 QQQ  743  NMP  H1   HGA3       0.090000        1.0080           0
   11875 QQQ  743  NMP  H2   HGA3       0.090000        1.0080           0
   11876 QQQ  743  NMP  H3   HGA3       0.090000        1.0080           0
   11877 QQQ  743  NMP  N2   NG2R53    -0.098000       14.0070           0
   11878 QQQ  743  NMP  C3   CG3C52    -0.077000       12.0110           0
   11879 QQQ  743  NMP  H4   HGA2       0.090000        1.0080           0
   11880 QQQ  743  NMP  H5   HGA2       0.090000        1.0080           0
   11881 QQQ  743  NMP  C4   CG3C52    -0.233000       12.0110           0
   11882 QQQ  743  NMP  H6   HGA2       0.090000        1.0080           0
   11883 QQQ  743  NMP  H7   HGA2       0.090000        1.0080           0
   11884 QQQ  743  NMP  C5   CG3C52    -0.027000       12.0110           0
   11885 QQQ  743  NMP  H8   HGA2       0.090000        1.0080           0
   11886 QQQ  743  NMP  H9   HGA2       0.090000        1.0080           0
   11887 QQQ  743  NMP  C6   CG2R53     0.286000       12.0110           0
   11888 QQQ  743  NMP  O7   OG2D1     -0.500000       15.9990           0
   11889 QQQ  744  NMP  C1   CG331     -0.161000       12.0110           0
   11890 QQQ  744  NMP  H1   HGA3       0.090000        1.0080           0
   11891 QQQ  744  NMP  H2   HGA3       0.090000        1.0080           0
   11892 QQQ  744  NMP  H3   HGA3       0.090000        1.0080           0
   11893 QQQ  744  NMP  N2   NG2R53    -0.098000       14.0070           0
   11894 QQQ  744  NMP  C3   CG3C52    -0.077000       12.0110           0
   11895 QQQ  744  NMP  H4   HGA2       0.090000        1.0080           0
   11896 QQQ  744  NMP  H5   HGA2       0.090000        1.0080           0
   11897 QQQ  744  NMP  C4   CG3C52    -0.233000       12.0110           0
   11898 QQQ  744  NMP  H6   HGA2       0.090000        1.0080           0
   11899 QQQ  744  NMP  H7   HGA2       0.090000        1.0080           0
   11900 QQQ  744  NMP  C5   CG3C52    -0.027000       12.0110           0
   11901 QQQ  744  NMP  H8   HGA2       0.090000        1.0080           0
   11902 QQQ  744  NMP  H9   HGA2       0.090000        1.0080           0
   11903 QQQ  744  NMP  C6   CG2R53     0.286000       12.0110           0
   11904 QQQ  744  NMP  O7   OG2D1     -0.500000       15.9990           0
   11905 QQQ  745  NMP  C1   CG331     -0.161000       12.0110           0
   11906 QQQ  745  NMP  H1   HGA3       0.090000        1.0080           0
   11907 QQQ  745  NMP  H2   HGA3       0.090000        1.0080           0
   11908 QQQ  745  NMP  H3   HGA3       0.090000        1.0080           0
   11909 QQQ  745  NMP  N2   NG2R53    -0.098000       14.0070           0
   11910 QQQ  745  NMP  C3   CG3C52    -0.077000       12.0110           0
   11911 QQQ  745  NMP  H4   HGA2       0.090000        1.0080           0
   11912 QQQ  745  NMP  H5   HGA2       0.090000        1.0080           0
   11913 QQQ  745  NMP  C4   CG3C52    -0.233000       12.0110           0
   11914 QQQ  745  NMP  H6   HGA2       0.090000        1.0080           0
   11915 QQQ  745  NMP  H7   HGA2       0.090000        1.0080           0
   11916 QQQ  745  NMP  C5   CG3C52    -0.027000       12.0110           0
   11917 QQQ  745  NMP  H8   HGA2       0.090000        1.0080           0
   11918 QQQ  745  NMP  H9   HGA2       0.090000        1.0080           0
   11919 QQQ  745  NMP  C6   CG2R53     0.286000       12.0110           0
   11920 QQQ  745  NMP  O7   OG2D1     -0.500000       15.9990           0
   11921 QQQ  746  NMP  C1   CG331     -0.161000       12.0110           0
   11922 QQQ  746  NMP  H1   HGA3       0.090000        1.0080           0
   11923 QQQ  746  NMP  H2   HGA3       0.090000        1.0080           0
   11924 QQQ  746  NMP  H3   HGA3       0.090000        1.0080           0
   11925 QQQ  746  NMP  N2   NG2R53    -0.098000       14.0070           0
   11926 QQQ  746  NMP  C3   CG3C52    -0.077000       12.0110           0
   11927 QQQ  746  NMP  H4   HGA2       0.090000        1.0080           0
   11928 QQQ  746  NMP  H5   HGA2       0.090000        1.0080           0
   11929 QQQ  746  NMP  C4   CG3C52    -0.233000       12.0110           0
   11930 QQQ  746  NMP  H6   HGA2       0.090000        1.0080           0
   11931 QQQ  746  NMP  H7   HGA2       0.090000        1.0080           0
   11932 QQQ  746  NMP  C5   CG3C52    -0.027000       12.0110           0
   11933 QQQ  746  NMP  H8   HGA2       0.090000        1.0080           0
   11934 QQQ  746  NMP  H9   HGA2       0.090000        1.0080           0
   11935 QQQ  746  NMP  C6   CG2R53     0.286000       12.0110           0
   11936 QQQ  746  NMP  O7   OG2D1     -0.500000       15.9990           0
   11937 QQQ  747  NMP  C1   CG331     -0.161000       12.0110           0
   11938 QQQ  747  NMP  H1   HGA3       0.090000        1.0080           0
   11939 QQQ  747  NMP  H2   HGA3       0.090000        1.0080           0
   11940 QQQ  747  NMP  H3   HGA3       0.090000        1.0080           0
   11941 QQQ  747  NMP  N2   NG2R53    -0.098000       14.0070           0
   11942 QQQ  747  NMP  C3   CG3C52    -0.077000       12.0110           0
   11943 QQQ  747  NMP  H4   HGA2       0.090000        1.0080           0
   11944 QQQ  747  NMP  H5   HGA2       0.090000        1.0080           0
   11945 QQQ  747  NMP  C4   CG3C52    -0.233000       12.0110           0
   11946 QQQ  747  NMP  H6   HGA2       0.090000        1.0080           0
   11947 QQQ  747  NMP  H7   HGA2       0.090000        1.0080           0
   11948 QQQ  747  NMP  C5   CG3C52    -0.027000       12.0110           0
   11949 QQQ  747  NMP  H8   HGA2       0.090000        1.0080           0
   11950 QQQ  747  NMP  H9   HGA2       0.090000        1.0080           0
   11951 QQQ  747  NMP  C6   CG2R53     0.286000       12.0110           0
   11952 QQQ  747  NMP  O7   OG2D1     -0.500000       15.9990           0
   11953 QQQ  748  NMP  C1   CG331     -0.161000       12.0110           0
   11954 QQQ  748  NMP  H1   HGA3       0.090000        1.0080           0
   11955 QQQ  748  NMP  H2   HGA3       0.090000        1.0080           0
   11956 QQQ  748  NMP  H3   HGA3       0.090000        1.0080           0
   11957 QQQ  748  NMP  N2   NG2R53    -0.098000       14.0070           0
   11958 QQQ  748  NMP  C3   CG3C52    -0.077000       12.0110           0
   11959 QQQ  748  NMP  H4   HGA2       0.090000        1.0080           0
   11960 QQQ  748  NMP  H5   HGA2       0.090000        1.0080           0
   11961 QQQ  748  NMP  C4   CG3C52    -0.233000       12.0110           0
   11962 QQQ  748  NMP  H6   HGA2       0.090000        1.0080           0
   11963 QQQ  748  NMP  H7   HGA2       0.090000        1.0080           0
   11964 QQQ  748  NMP  C5   CG3C52    -0.027000       12.0110           0
   11965 QQQ  748  NMP  H8   HGA2       0.090000        1.0080           0
   11966 QQQ  748  NMP  H9   HGA2       0.090000        1.0080           0
   11967 QQQ  748  NMP  C6   CG2R53     0.286000       12.0110           0
   11968 QQQ  748  NMP  O7   OG2D1     -0.500000       15.9990           0
   11969 QQQ  749  NMP  C1   CG331     -0.161000       12.0110           0
   11970 QQQ  749  NMP  H1   HGA3       0.090000        1.0080           0
   11971 QQQ  749  NMP  H2   HGA3       0.090000        1.0080           0
   11972 QQQ  749  NMP  H3   HGA3       0.090000        1.0080           0
   11973 QQQ  749  NMP  N2   NG2R53    -0.098000       14.0070           0
   11974 QQQ  749  NMP  C3   CG3C52    -0.077000       12.0110           0
   11975 QQQ  749  NMP  H4   HGA2       0.090000        1.0080           0
   11976 QQQ  749  NMP  H5   HGA2       0.090000        1.0080           0
   11977 QQQ  749  NMP  C4   CG3C52    -0.233000       12.0110           0
   11978 QQQ  749  NMP  H6   HGA2       0.090000        1.0080           0
   11979 QQQ  749  NMP  H7   HGA2       0.090000        1.0080           0
   11980 QQQ  749  NMP  C5   CG3C52    -0.027000       12.0110           0
   11981 QQQ  749  NMP  H8   HGA2       0.090000        1.0080           0
   11982 QQQ  749  NMP  H9   HGA2       0.090000        1.0080           0
   11983 QQQ  749  NMP  C6   CG2R53     0.286000       12.0110           0
   11984 QQQ  749  NMP  O7   OG2D1     -0.500000       15.9990           0
   11985 QQQ  750  NMP  C1   CG331     -0.161000       12.0110           0
   11986 QQQ  750  NMP  H1   HGA3       0.090000        1.0080           0
   11987 QQQ  750  NMP  H2   HGA3       0.090000        1.0080           0
   11988 QQQ  750  NMP  H3   HGA3       0.090000        1.0080           0
   11989 QQQ  750  NMP  N2   NG2R53    -0.098000       14.0070           0
   11990 QQQ  750  NMP  C3   CG3C52    -0.077000       12.0110           0
   11991 QQQ  750  NMP  H4   HGA2       0.090000        1.0080           0
   11992 QQQ  750  NMP  H5   HGA2       0.090000        1.0080           0
   11993 QQQ  750  NMP  C4   CG3C52    -0.233000       12.0110           0
   11994 QQQ  750  NMP  H6   HGA2       0.090000        1.0080           0
   11995 QQQ  750  NMP  H7   HGA2       0.090000        1.0080           0
   11996 QQQ  750  NMP  C5   CG3C52    -0.027000       12.0110           0
   11997 QQQ  750  NMP  H8   HGA2       0.090000        1.0080           0
   11998 QQQ  750  NMP  H9   HGA2       0.090000        1.0080           0
   11999 QQQ  750  NMP  C6   CG2R53     0.286000       12.0110           0
   12000 QQQ  750  NMP  O7   OG2D1     -0.500000       15.9990           0
   12001 QQQ  751  NMP  C1   CG331     -0.161000       12.0110           0
   12002 QQQ  751  NMP  H1   HGA3       0.090000        1.0080           0
   12003 QQQ  751  NMP  H2   HGA3       0.090000        1.0080           0
   12004 QQQ  751  NMP  H3   HGA3       0.090000        1.0080           0
   12005 QQQ  751  NMP  N2   NG2R53    -0.098000       14.0070           0
   12006 QQQ  751  NMP  C3   CG3C52    -0.077000       12.0110           0
   12007 QQQ  751  NMP  H4   HGA2       0.090000        1.0080           0
   12008 QQQ  751  NMP  H5   HGA2       0.090000        1.0080           0
   12009 QQQ  751  NMP  C4   CG3C52    -0.233000       12.0110           0
   12010 QQQ  751  NMP  H6   HGA2       0.090000        1.0080           0
   12011 QQQ  751  NMP  H7   HGA2       0.090000        1.0080           0
   12012 QQQ  751  NMP  C5   CG3C52    -0.027000       12.0110           0
   12013 QQQ  751  NMP  H8   HGA2       0.090000        1.0080           0
   12014 QQQ  751  NMP  H9   HGA2       0.090000        1.0080           0
   12015 QQQ  751  NMP  C6   CG2R53     0.286000       12.0110           0
   12016 QQQ  751  NMP  O7   OG2D1     -0.500000       15.9990           0
   12017 QQQ  752  NMP  C1   CG331     -0.161000       12.0110           0
   12018 QQQ  752  NMP  H1   HGA3       0.090000        1.0080           0
   12019 QQQ  752  NMP  H2   HGA3       0.090000        1.0080           0
   12020 QQQ  752  NMP  H3   HGA3       0.090000        1.0080           0
   12021 QQQ  752  NMP  N2   NG2R53    -0.098000       14.0070           0
   12022 QQQ  752  NMP  C3   CG3C52    -0.077000       12.0110           0
   12023 QQQ  752  NMP  H4   HGA2       0.090000        1.0080           0
   12024 QQQ  752  NMP  H5   HGA2       0.090000        1.0080           0
   12025 QQQ  752  NMP  C4   CG3C52    -0.233000       12.0110           0
   12026 QQQ  752  NMP  H6   HGA2       0.090000        1.0080           0
   12027 QQQ  752  NMP  H7   HGA2       0.090000        1.0080           0
   12028 QQQ  752  NMP  C5   CG3C52    -0.027000       12.0110           0
   12029 QQQ  752  NMP  H8   HGA2       0.090000        1.0080           0
   12030 QQQ  752  NMP  H9   HGA2       0.090000        1.0080           0
   12031 QQQ  752  NMP  C6   CG2R53     0.286000       12.0110           0
   12032 QQQ  752  NMP  O7   OG2D1     -0.500000       15.9990           0
   12033 QQQ  753  NMP  C1   CG331     -0.161000       12.0110           0
   12034 QQQ  753  NMP  H1   HGA3       0.090000        1.0080           0
   12035 QQQ  753  NMP  H2   HGA3       0.090000        1.0080           0
   12036 QQQ  753  NMP  H3   HGA3       0.090000        1.0080           0
   12037 QQQ  753  NMP  N2   NG2R53    -0.098000       14.0070           0
   12038 QQQ  753  NMP  C3   CG3C52    -0.077000       12.0110           0
   12039 QQQ  753  NMP  H4   HGA2       0.090000        1.0080           0
   12040 QQQ  753  NMP  H5   HGA2       0.090000        1.0080           0
   12041 QQQ  753  NMP  C4   CG3C52    -0.233000       12.0110           0
   12042 QQQ  753  NMP  H6   HGA2       0.090000        1.0080           0
   12043 QQQ  753  NMP  H7   HGA2       0.090000        1.0080           0
   12044 QQQ  753  NMP  C5   CG3C52    -0.027000       12.0110           0
   12045 QQQ  753  NMP  H8   HGA2       0.090000        1.0080           0
   12046 QQQ  753  NMP  H9   HGA2       0.090000        1.0080           0
   12047 QQQ  753  NMP  C6   CG2R53     0.286000       12.0110           0
   12048 QQQ  753  NMP  O7   OG2D1     -0.500000       15.9990           0
   12049 QQQ  754  NMP  C1   CG331     -0.161000       12.0110           0
   12050 QQQ  754  NMP  H1   HGA3       0.090000        1.0080           0
   12051 QQQ  754  NMP  H2   HGA3       0.090000        1.0080           0
   12052 QQQ  754  NMP  H3   HGA3       0.090000        1.0080           0
   12053 QQQ  754  NMP  N2   NG2R53    -0.098000       14.0070           0
   12054 QQQ  754  NMP  C3   CG3C52    -0.077000       12.0110           0
   12055 QQQ  754  NMP  H4   HGA2       0.090000        1.0080           0
   12056 QQQ  754  NMP  H5   HGA2       0.090000        1.0080           0
   12057 QQQ  754  NMP  C4   CG3C52    -0.233000       12.0110           0
   12058 QQQ  754  NMP  H6   HGA2       0.090000        1.0080           0
   12059 QQQ  754  NMP  H7   HGA2       0.090000        1.0080           0
   12060 QQQ  754  NMP  C5   CG3C52    -0.027000       12.0110           0
   12061 QQQ  754  NMP  H8   HGA2       0.090000        1.0080           0
   12062 QQQ  754  NMP  H9   HGA2       0.090000        1.0080           0
   12063 QQQ  754  NMP  C6   CG2R53     0.286000       12.0110           0
   12064 QQQ  754  NMP  O7   OG2D1     -0.500000       15.9990           0
   12065 QQQ  755  NMP  C1   CG331     -0.161000       12.0110           0
   12066 QQQ  755  NMP  H1   HGA3       0.090000        1.0080           0
   12067 QQQ  755  NMP  H2   HGA3       0.090000        1.0080           0
   12068 QQQ  755  NMP  H3   HGA3       0.090000        1.0080           0
   12069 QQQ  755  NMP  N2   NG2R53    -0.098000       14.0070           0
   12070 QQQ  755  NMP  C3   CG3C52    -0.077000       12.0110           0
   12071 QQQ  755  NMP  H4   HGA2       0.090000        1.0080           0
   12072 QQQ  755  NMP  H5   HGA2       0.090000        1.0080           0
   12073 QQQ  755  NMP  C4   CG3C52    -0.233000       12.0110           0
   12074 QQQ  755  NMP  H6   HGA2       0.090000        1.0080           0
   12075 QQQ  755  NMP  H7   HGA2       0.090000        1.0080           0
   12076 QQQ  755  NMP  C5   CG3C52    -0.027000       12.0110           0
   12077 QQQ  755  NMP  H8   HGA2       0.090000        1.0080           0
   12078 QQQ  755  NMP  H9   HGA2       0.090000        1.0080           0
   12079 QQQ  755  NMP  C6   CG2R53     0.286000       12.0110           0
   12080 QQQ  755  NMP  O7   OG2D1     -0.500000       15.9990           0
   12081 QQQ  756  NMP  C1   CG331     -0.161000       12.0110           0
   12082 QQQ  756  NMP  H1   HGA3       0.090000        1.0080           0
   12083 QQQ  756  NMP  H2   HGA3       0.090000        1.0080           0
   12084 QQQ  756  NMP  H3   HGA3       0.090000        1.0080           0
   12085 QQQ  756  NMP  N2   NG2R53    -0.098000       14.0070           0
   12086 QQQ  756  NMP  C3   CG3C52    -0.077000       12.0110           0
   12087 QQQ  756  NMP  H4   HGA2       0.090000        1.0080           0
   12088 QQQ  756  NMP  H5   HGA2       0.090000        1.0080           0
   12089 QQQ  756  NMP  C4   CG3C52    -0.233000       12.0110           0
   12090 QQQ  756  NMP  H6   HGA2       0.090000        1.0080           0
   12091 QQQ  756  NMP  H7   HGA2       0.090000        1.0080           0
   12092 QQQ  756  NMP  C5   CG3C52    -0.027000       12.0110           0
   12093 QQQ  756  NMP  H8   HGA2       0.090000        1.0080           0
   12094 QQQ  756  NMP  H9   HGA2       0.090000        1.0080           0
   12095 QQQ  756  NMP  C6   CG2R53     0.286000       12.0110           0
   12096 QQQ  756  NMP  O7   OG2D1     -0.500000       15.9990           0
   12097 QQQ  757  NMP  C1   CG331     -0.161000       12.0110           0
   12098 QQQ  757  NMP  H1   HGA3       0.090000        1.0080           0
   12099 QQQ  757  NMP  H2   HGA3       0.090000        1.0080           0
   12100 QQQ  757  NMP  H3   HGA3       0.090000        1.0080           0
   12101 QQQ  757  NMP  N2   NG2R53    -0.098000       14.0070           0
   12102 QQQ  757  NMP  C3   CG3C52    -0.077000       12.0110           0
   12103 QQQ  757  NMP  H4   HGA2       0.090000        1.0080           0
   12104 QQQ  757  NMP  H5   HGA2       0.090000        1.0080           0
   12105 QQQ  757  NMP  C4   CG3C52    -0.233000       12.0110           0
   12106 QQQ  757  NMP  H6   HGA2       0.090000        1.0080           0
   12107 QQQ  757  NMP  H7   HGA2       0.090000        1.0080           0
   12108 QQQ  757  NMP  C5   CG3C52    -0.027000       12.0110           0
   12109 QQQ  757  NMP  H8   HGA2       0.090000        1.0080           0
   12110 QQQ  757  NMP  H9   HGA2       0.090000        1.0080           0
   12111 QQQ  757  NMP  C6   CG2R53     0.286000       12.0110           0
   12112 QQQ  757  NMP  O7   OG2D1     -0.500000       15.9990           0
   12113 QQQ  758  NMP  C1   CG331     -0.161000       12.0110           0
   12114 QQQ  758  NMP  H1   HGA3       0.090000        1.0080           0
   12115 QQQ  758  NMP  H2   HGA3       0.090000        1.0080           0
   12116 QQQ  758  NMP  H3   HGA3       0.090000        1.0080           0
   12117 QQQ  758  NMP  N2   NG2R53    -0.098000       14.0070           0
   12118 QQQ  758  NMP  C3   CG3C52    -0.077000       12.0110           0
   12119 QQQ  758  NMP  H4   HGA2       0.090000        1.0080           0
   12120 QQQ  758  NMP  H5   HGA2       0.090000        1.0080           0
   12121 QQQ  758  NMP  C4   CG3C52    -0.233000       12.0110           0
   12122 QQQ  758  NMP  H6   HGA2       0.090000        1.0080           0
   12123 QQQ  758  NMP  H7   HGA2       0.090000        1.0080           0
   12124 QQQ  758  NMP  C5   CG3C52    -0.027000       12.0110           0
   12125 QQQ  758  NMP  H8   HGA2       0.090000        1.0080           0
   12126 QQQ  758  NMP  H9   HGA2       0.090000        1.0080           0
   12127 QQQ  758  NMP  C6   CG2R53     0.286000       12.0110           0
   12128 QQQ  758  NMP  O7   OG2D1     -0.500000       15.9990           0
   12129 QQQ  759  NMP  C1   CG331     -0.161000       12.0110           0
   12130 QQQ  759  NMP  H1   HGA3       0.090000        1.0080           0
   12131 QQQ  759  NMP  H2   HGA3       0.090000        1.0080           0
   12132 QQQ  759  NMP  H3   HGA3       0.090000        1.0080           0
   12133 QQQ  759  NMP  N2   NG2R53    -0.098000       14.0070           0
   12134 QQQ  759  NMP  C3   CG3C52    -0.077000       12.0110           0
   12135 QQQ  759  NMP  H4   HGA2       0.090000        1.0080           0
   12136 QQQ  759  NMP  H5   HGA2       0.090000        1.0080           0
   12137 QQQ  759  NMP  C4   CG3C52    -0.233000       12.0110           0
   12138 QQQ  759  NMP  H6   HGA2       0.090000        1.0080           0
   12139 QQQ  759  NMP  H7   HGA2       0.090000        1.0080           0
   12140 QQQ  759  NMP  C5   CG3C52    -0.027000       12.0110           0
   12141 QQQ  759  NMP  H8   HGA2       0.090000        1.0080           0
   12142 QQQ  759  NMP  H9   HGA2       0.090000        1.0080           0
   12143 QQQ  759  NMP  C6   CG2R53     0.286000       12.0110           0
   12144 QQQ  759  NMP  O7   OG2D1     -0.500000       15.9990           0
   12145 QQQ  760  NMP  C1   CG331     -0.161000       12.0110           0
   12146 QQQ  760  NMP  H1   HGA3       0.090000        1.0080           0
   12147 QQQ  760  NMP  H2   HGA3       0.090000        1.0080           0
   12148 QQQ  760  NMP  H3   HGA3       0.090000        1.0080           0
   12149 QQQ  760  NMP  N2   NG2R53    -0.098000       14.0070           0
   12150 QQQ  760  NMP  C3   CG3C52    -0.077000       12.0110           0
   12151 QQQ  760  NMP  H4   HGA2       0.090000        1.0080           0
   12152 QQQ  760  NMP  H5   HGA2       0.090000        1.0080           0
   12153 QQQ  760  NMP  C4   CG3C52    -0.233000       12.0110           0
   12154 QQQ  760  NMP  H6   HGA2       0.090000        1.0080           0
   12155 QQQ  760  NMP  H7   HGA2       0.090000        1.0080           0
   12156 QQQ  760  NMP  C5   CG3C52    -0.027000       12.0110           0
   12157 QQQ  760  NMP  H8   HGA2       0.090000        1.0080           0
   12158 QQQ  760  NMP  H9   HGA2       0.090000        1.0080           0
   12159 QQQ  760  NMP  C6   CG2R53     0.286000       12.0110           0
   12160 QQQ  760  NMP  O7   OG2D1     -0.500000       15.9990           0
   12161 QQQ  761  NMP  C1   CG331     -0.161000       12.0110           0
   12162 QQQ  761  NMP  H1   HGA3       0.090000        1.0080           0
   12163 QQQ  761  NMP  H2   HGA3       0.090000        1.0080           0
   12164 QQQ  761  NMP  H3   HGA3       0.090000        1.0080           0
   12165 QQQ  761  NMP  N2   NG2R53    -0.098000       14.0070           0
   12166 QQQ  761  NMP  C3   CG3C52    -0.077000       12.0110           0
   12167 QQQ  761  NMP  H4   HGA2       0.090000        1.0080           0
   12168 QQQ  761  NMP  H5   HGA2       0.090000        1.0080           0
   12169 QQQ  761  NMP  C4   CG3C52    -0.233000       12.0110           0
   12170 QQQ  761  NMP  H6   HGA2       0.090000        1.0080           0
   12171 QQQ  761  NMP  H7   HGA2       0.090000        1.0080           0
   12172 QQQ  761  NMP  C5   CG3C52    -0.027000       12.0110           0
   12173 QQQ  761  NMP  H8   HGA2       0.090000        1.0080           0
   12174 QQQ  761  NMP  H9   HGA2       0.090000        1.0080           0
   12175 QQQ  761  NMP  C6   CG2R53     0.286000       12.0110           0
   12176 QQQ  761  NMP  O7   OG2D1     -0.500000       15.9990           0
   12177 QQQ  762  NMP  C1   CG331     -0.161000       12.0110           0
   12178 QQQ  762  NMP  H1   HGA3       0.090000        1.0080           0
   12179 QQQ  762  NMP  H2   HGA3       0.090000        1.0080           0
   12180 QQQ  762  NMP  H3   HGA3       0.090000        1.0080           0
   12181 QQQ  762  NMP  N2   NG2R53    -0.098000       14.0070           0
   12182 QQQ  762  NMP  C3   CG3C52    -0.077000       12.0110           0
   12183 QQQ  762  NMP  H4   HGA2       0.090000        1.0080           0
   12184 QQQ  762  NMP  H5   HGA2       0.090000        1.0080           0
   12185 QQQ  762  NMP  C4   CG3C52    -0.233000       12.0110           0
   12186 QQQ  762  NMP  H6   HGA2       0.090000        1.0080           0
   12187 QQQ  762  NMP  H7   HGA2       0.090000        1.0080           0
   12188 QQQ  762  NMP  C5   CG3C52    -0.027000       12.0110           0
   12189 QQQ  762  NMP  H8   HGA2       0.090000        1.0080           0
   12190 QQQ  762  NMP  H9   HGA2       0.090000        1.0080           0
   12191 QQQ  762  NMP  C6   CG2R53     0.286000       12.0110           0
   12192 QQQ  762  NMP  O7   OG2D1     -0.500000       15.9990           0
   12193 QQQ  763  NMP  C1   CG331     -0.161000       12.0110           0
   12194 QQQ  763  NMP  H1   HGA3       0.090000        1.0080           0
   12195 QQQ  763  NMP  H2   HGA3       0.090000        1.0080           0
   12196 QQQ  763  NMP  H3   HGA3       0.090000        1.0080           0
   12197 QQQ  763  NMP  N2   NG2R53    -0.098000       14.0070           0
   12198 QQQ  763  NMP  C3   CG3C52    -0.077000       12.0110           0
   12199 QQQ  763  NMP  H4   HGA2       0.090000        1.0080           0
   12200 QQQ  763  NMP  H5   HGA2       0.090000        1.0080           0
   12201 QQQ  763  NMP  C4   CG3C52    -0.233000       12.0110           0
   12202 QQQ  763  NMP  H6   HGA2       0.090000        1.0080           0
   12203 QQQ  763  NMP  H7   HGA2       0.090000        1.0080           0
   12204 QQQ  763  NMP  C5   CG3C52    -0.027000       12.0110           0
   12205 QQQ  763  NMP  H8   HGA2       0.090000        1.0080           0
   12206 QQQ  763  NMP  H9   HGA2       0.090000        1.0080           0
   12207 QQQ  763  NMP  C6   CG2R53     0.286000       12.0110           0
   12208 QQQ  763  NMP  O7   OG2D1     -0.500000       15.9990           0
   12209 QQQ  764  NMP  C1   CG331     -0.161000       12.0110           0
   12210 QQQ  764  NMP  H1   HGA3       0.090000        1.0080           0
   12211 QQQ  764  NMP  H2   HGA3       0.090000        1.0080           0
   12212 QQQ  764  NMP  H3   HGA3       0.090000        1.0080           0
   12213 QQQ  764  NMP  N2   NG2R53    -0.098000       14.0070           0
   12214 QQQ  764  NMP  C3   CG3C52    -0.077000       12.0110           0
   12215 QQQ  764  NMP  H4   HGA2       0.090000        1.0080           0
   12216 QQQ  764  NMP  H5   HGA2       0.090000        1.0080           0
   12217 QQQ  764  NMP  C4   CG3C52    -0.233000       12.0110           0
   12218 QQQ  764  NMP  H6   HGA2       0.090000        1.0080           0
   12219 QQQ  764  NMP  H7   HGA2       0.090000        1.0080           0
   12220 QQQ  764  NMP  C5   CG3C52    -0.027000       12.0110           0
   12221 QQQ  764  NMP  H8   HGA2       0.090000        1.0080           0
   12222 QQQ  764  NMP  H9   HGA2       0.090000        1.0080           0
   12223 QQQ  764  NMP  C6   CG2R53     0.286000       12.0110           0
   12224 QQQ  764  NMP  O7   OG2D1     -0.500000       15.9990           0
   12225 QQQ  765  NMP  C1   CG331     -0.161000       12.0110           0
   12226 QQQ  765  NMP  H1   HGA3       0.090000        1.0080           0
   12227 QQQ  765  NMP  H2   HGA3       0.090000        1.0080           0
   12228 QQQ  765  NMP  H3   HGA3       0.090000        1.0080           0
   12229 QQQ  765  NMP  N2   NG2R53    -0.098000       14.0070           0
   12230 QQQ  765  NMP  C3   CG3C52    -0.077000       12.0110           0
   12231 QQQ  765  NMP  H4   HGA2       0.090000        1.0080           0
   12232 QQQ  765  NMP  H5   HGA2       0.090000        1.0080           0
   12233 QQQ  765  NMP  C4   CG3C52    -0.233000       12.0110           0
   12234 QQQ  765  NMP  H6   HGA2       0.090000        1.0080           0
   12235 QQQ  765  NMP  H7   HGA2       0.090000        1.0080           0
   12236 QQQ  765  NMP  C5   CG3C52    -0.027000       12.0110           0
   12237 QQQ  765  NMP  H8   HGA2       0.090000        1.0080           0
   12238 QQQ  765  NMP  H9   HGA2       0.090000        1.0080           0
   12239 QQQ  765  NMP  C6   CG2R53     0.286000       12.0110           0
   12240 QQQ  765  NMP  O7   OG2D1     -0.500000       15.9990           0
   12241 QQQ  766  NMP  C1   CG331     -0.161000       12.0110           0
   12242 QQQ  766  NMP  H1   HGA3       0.090000        1.0080           0
   12243 QQQ  766  NMP  H2   HGA3       0.090000        1.0080           0
   12244 QQQ  766  NMP  H3   HGA3       0.090000        1.0080           0
   12245 QQQ  766  NMP  N2   NG2R53    -0.098000       14.0070           0
   12246 QQQ  766  NMP  C3   CG3C52    -0.077000       12.0110           0
   12247 QQQ  766  NMP  H4   HGA2       0.090000        1.0080           0
   12248 QQQ  766  NMP  H5   HGA2       0.090000        1.0080           0
   12249 QQQ  766  NMP  C4   CG3C52    -0.233000       12.0110           0
   12250 QQQ  766  NMP  H6   HGA2       0.090000        1.0080           0
   12251 QQQ  766  NMP  H7   HGA2       0.090000        1.0080           0
   12252 QQQ  766  NMP  C5   CG3C52    -0.027000       12.0110           0
   12253 QQQ  766  NMP  H8   HGA2       0.090000        1.0080           0
   12254 QQQ  766  NMP  H9   HGA2       0.090000        1.0080           0
   12255 QQQ  766  NMP  C6   CG2R53     0.286000       12.0110           0
   12256 QQQ  766  NMP  O7   OG2D1     -0.500000       15.9990           0
   12257 QQQ  767  NMP  C1   CG331     -0.161000       12.0110           0
   12258 QQQ  767  NMP  H1   HGA3       0.090000        1.0080           0
   12259 QQQ  767  NMP  H2   HGA3       0.090000        1.0080           0
   12260 QQQ  767  NMP  H3   HGA3       0.090000        1.0080           0
   12261 QQQ  767  NMP  N2   NG2R53    -0.098000       14.0070           0
   12262 QQQ  767  NMP  C3   CG3C52    -0.077000       12.0110           0
   12263 QQQ  767  NMP  H4   HGA2       0.090000        1.0080           0
   12264 QQQ  767  NMP  H5   HGA2       0.090000        1.0080           0
   12265 QQQ  767  NMP  C4   CG3C52    -0.233000       12.0110           0
   12266 QQQ  767  NMP  H6   HGA2       0.090000        1.0080           0
   12267 QQQ  767  NMP  H7   HGA2       0.090000        1.0080           0
   12268 QQQ  767  NMP  C5   CG3C52    -0.027000       12.0110           0
   12269 QQQ  767  NMP  H8   HGA2       0.090000        1.0080           0
   12270 QQQ  767  NMP  H9   HGA2       0.090000        1.0080           0
   12271 QQQ  767  NMP  C6   CG2R53     0.286000       12.0110           0
   12272 QQQ  767  NMP  O7   OG2D1     -0.500000       15.9990           0
   12273 QQQ  768  NMP  C1   CG331     -0.161000       12.0110           0
   12274 QQQ  768  NMP  H1   HGA3       0.090000        1.0080           0
   12275 QQQ  768  NMP  H2   HGA3       0.090000        1.0080           0
   12276 QQQ  768  NMP  H3   HGA3       0.090000        1.0080           0
   12277 QQQ  768  NMP  N2   NG2R53    -0.098000       14.0070           0
   12278 QQQ  768  NMP  C3   CG3C52    -0.077000       12.0110           0
   12279 QQQ  768  NMP  H4   HGA2       0.090000        1.0080           0
   12280 QQQ  768  NMP  H5   HGA2       0.090000        1.0080           0
   12281 QQQ  768  NMP  C4   CG3C52    -0.233000       12.0110           0
   12282 QQQ  768  NMP  H6   HGA2       0.090000        1.0080           0
   12283 QQQ  768  NMP  H7   HGA2       0.090000        1.0080           0
   12284 QQQ  768  NMP  C5   CG3C52    -0.027000       12.0110           0
   12285 QQQ  768  NMP  H8   HGA2       0.090000        1.0080           0
   12286 QQQ  768  NMP  H9   HGA2       0.090000        1.0080           0
   12287 QQQ  768  NMP  C6   CG2R53     0.286000       12.0110           0
   12288 QQQ  768  NMP  O7   OG2D1     -0.500000       15.9990           0
   12289 QQQ  769  NMP  C1   CG331     -0.161000       12.0110           0
   12290 QQQ  769  NMP  H1   HGA3       0.090000        1.0080           0
   12291 QQQ  769  NMP  H2   HGA3       0.090000        1.0080           0
   12292 QQQ  769  NMP  H3   HGA3       0.090000        1.0080           0
   12293 QQQ  769  NMP  N2   NG2R53    -0.098000       14.0070           0
   12294 QQQ  769  NMP  C3   CG3C52    -0.077000       12.0110           0
   12295 QQQ  769  NMP  H4   HGA2       0.090000        1.0080           0
   12296 QQQ  769  NMP  H5   HGA2       0.090000        1.0080           0
   12297 QQQ  769  NMP  C4   CG3C52    -0.233000       12.0110           0
   12298 QQQ  769  NMP  H6   HGA2       0.090000        1.0080           0
   12299 QQQ  769  NMP  H7   HGA2       0.090000        1.0080           0
   12300 QQQ  769  NMP  C5   CG3C52    -0.027000       12.0110           0
   12301 QQQ  769  NMP  H8   HGA2       0.090000        1.0080           0
   12302 QQQ  769  NMP  H9   HGA2       0.090000        1.0080           0
   12303 QQQ  769  NMP  C6   CG2R53     0.286000       12.0110           0
   12304 QQQ  769  NMP  O7   OG2D1     -0.500000       15.9990           0
   12305 QQQ  770  NMP  C1   CG331     -0.161000       12.0110           0
   12306 QQQ  770  NMP  H1   HGA3       0.090000        1.0080           0
   12307 QQQ  770  NMP  H2   HGA3       0.090000        1.0080           0
   12308 QQQ  770  NMP  H3   HGA3       0.090000        1.0080           0
   12309 QQQ  770  NMP  N2   NG2R53    -0.098000       14.0070           0
   12310 QQQ  770  NMP  C3   CG3C52    -0.077000       12.0110           0
   12311 QQQ  770  NMP  H4   HGA2       0.090000        1.0080           0
   12312 QQQ  770  NMP  H5   HGA2       0.090000        1.0080           0
   12313 QQQ  770  NMP  C4   CG3C52    -0.233000       12.0110           0
   12314 QQQ  770  NMP  H6   HGA2       0.090000        1.0080           0
   12315 QQQ  770  NMP  H7   HGA2       0.090000        1.0080           0
   12316 QQQ  770  NMP  C5   CG3C52    -0.027000       12.0110           0
   12317 QQQ  770  NMP  H8   HGA2       0.090000        1.0080           0
   12318 QQQ  770  NMP  H9   HGA2       0.090000        1.0080           0
   12319 QQQ  770  NMP  C6   CG2R53     0.286000       12.0110           0
   12320 QQQ  770  NMP  O7   OG2D1     -0.500000       15.9990           0
   12321 QQQ  771  NMP  C1   CG331     -0.161000       12.0110           0
   12322 QQQ  771  NMP  H1   HGA3       0.090000        1.0080           0
   12323 QQQ  771  NMP  H2   HGA3       0.090000        1.0080           0
   12324 QQQ  771  NMP  H3   HGA3       0.090000        1.0080           0
   12325 QQQ  771  NMP  N2   NG2R53    -0.098000       14.0070           0
   12326 QQQ  771  NMP  C3   CG3C52    -0.077000       12.0110           0
   12327 QQQ  771  NMP  H4   HGA2       0.090000        1.0080           0
   12328 QQQ  771  NMP  H5   HGA2       0.090000        1.0080           0
   12329 QQQ  771  NMP  C4   CG3C52    -0.233000       12.0110           0
   12330 QQQ  771  NMP  H6   HGA2       0.090000        1.0080           0
   12331 QQQ  771  NMP  H7   HGA2       0.090000        1.0080           0
   12332 QQQ  771  NMP  C5   CG3C52    -0.027000       12.0110           0
   12333 QQQ  771  NMP  H8   HGA2       0.090000        1.0080           0
   12334 QQQ  771  NMP  H9   HGA2       0.090000        1.0080           0
   12335 QQQ  771  NMP  C6   CG2R53     0.286000       12.0110           0
   12336 QQQ  771  NMP  O7   OG2D1     -0.500000       15.9990           0
   12337 QQQ  772  NMP  C1   CG331     -0.161000       12.0110           0
   12338 QQQ  772  NMP  H1   HGA3       0.090000        1.0080           0
   12339 QQQ  772  NMP  H2   HGA3       0.090000        1.0080           0
   12340 QQQ  772  NMP  H3   HGA3       0.090000        1.0080           0
   12341 QQQ  772  NMP  N2   NG2R53    -0.098000       14.0070           0
   12342 QQQ  772  NMP  C3   CG3C52    -0.077000       12.0110           0
   12343 QQQ  772  NMP  H4   HGA2       0.090000        1.0080           0
   12344 QQQ  772  NMP  H5   HGA2       0.090000        1.0080           0
   12345 QQQ  772  NMP  C4   CG3C52    -0.233000       12.0110           0
   12346 QQQ  772  NMP  H6   HGA2       0.090000        1.0080           0
   12347 QQQ  772  NMP  H7   HGA2       0.090000        1.0080           0
   12348 QQQ  772  NMP  C5   CG3C52    -0.027000       12.0110           0
   12349 QQQ  772  NMP  H8   HGA2       0.090000        1.0080           0
   12350 QQQ  772  NMP  H9   HGA2       0.090000        1.0080           0
   12351 QQQ  772  NMP  C6   CG2R53     0.286000       12.0110           0
   12352 QQQ  772  NMP  O7   OG2D1     -0.500000       15.9990           0
   12353 QQQ  773  NMP  C1   CG331     -0.161000       12.0110           0
   12354 QQQ  773  NMP  H1   HGA3       0.090000        1.0080           0
   12355 QQQ  773  NMP  H2   HGA3       0.090000        1.0080           0
   12356 QQQ  773  NMP  H3   HGA3       0.090000        1.0080           0
   12357 QQQ  773  NMP  N2   NG2R53    -0.098000       14.0070           0
   12358 QQQ  773  NMP  C3   CG3C52    -0.077000       12.0110           0
   12359 QQQ  773  NMP  H4   HGA2       0.090000        1.0080           0
   12360 QQQ  773  NMP  H5   HGA2       0.090000        1.0080           0
   12361 QQQ  773  NMP  C4   CG3C52    -0.233000       12.0110           0
   12362 QQQ  773  NMP  H6   HGA2       0.090000        1.0080           0
   12363 QQQ  773  NMP  H7   HGA2       0.090000        1.0080           0
   12364 QQQ  773  NMP  C5   CG3C52    -0.027000       12.0110           0
   12365 QQQ  773  NMP  H8   HGA2       0.090000        1.0080           0
   12366 QQQ  773  NMP  H9   HGA2       0.090000        1.0080           0
   12367 QQQ  773  NMP  C6   CG2R53     0.286000       12.0110           0
   12368 QQQ  773  NMP  O7   OG2D1     -0.500000       15.9990           0
   12369 QQQ  774  NMP  C1   CG331     -0.161000       12.0110           0
   12370 QQQ  774  NMP  H1   HGA3       0.090000        1.0080           0
   12371 QQQ  774  NMP  H2   HGA3       0.090000        1.0080           0
   12372 QQQ  774  NMP  H3   HGA3       0.090000        1.0080           0
   12373 QQQ  774  NMP  N2   NG2R53    -0.098000       14.0070           0
   12374 QQQ  774  NMP  C3   CG3C52    -0.077000       12.0110           0
   12375 QQQ  774  NMP  H4   HGA2       0.090000        1.0080           0
   12376 QQQ  774  NMP  H5   HGA2       0.090000        1.0080           0
   12377 QQQ  774  NMP  C4   CG3C52    -0.233000       12.0110           0
   12378 QQQ  774  NMP  H6   HGA2       0.090000        1.0080           0
   12379 QQQ  774  NMP  H7   HGA2       0.090000        1.0080           0
   12380 QQQ  774  NMP  C5   CG3C52    -0.027000       12.0110           0
   12381 QQQ  774  NMP  H8   HGA2       0.090000        1.0080           0
   12382 QQQ  774  NMP  H9   HGA2       0.090000        1.0080           0
   12383 QQQ  774  NMP  C6   CG2R53     0.286000       12.0110           0
   12384 QQQ  774  NMP  O7   OG2D1     -0.500000       15.9990           0
   12385 QQQ  775  NMP  C1   CG331     -0.161000       12.0110           0
   12386 QQQ  775  NMP  H1   HGA3       0.090000        1.0080           0
   12387 QQQ  775  NMP  H2   HGA3       0.090000        1.0080           0
   12388 QQQ  775  NMP  H3   HGA3       0.090000        1.0080           0
   12389 QQQ  775  NMP  N2   NG2R53    -0.098000       14.0070           0
   12390 QQQ  775  NMP  C3   CG3C52    -0.077000       12.0110           0
   12391 QQQ  775  NMP  H4   HGA2       0.090000        1.0080           0
   12392 QQQ  775  NMP  H5   HGA2       0.090000        1.0080           0
   12393 QQQ  775  NMP  C4   CG3C52    -0.233000       12.0110           0
   12394 QQQ  775  NMP  H6   HGA2       0.090000        1.0080           0
   12395 QQQ  775  NMP  H7   HGA2       0.090000        1.0080           0
   12396 QQQ  775  NMP  C5   CG3C52    -0.027000       12.0110           0
   12397 QQQ  775  NMP  H8   HGA2       0.090000        1.0080           0
   12398 QQQ  775  NMP  H9   HGA2       0.090000        1.0080           0
   12399 QQQ  775  NMP  C6   CG2R53     0.286000       12.0110           0
   12400 QQQ  775  NMP  O7   OG2D1     -0.500000       15.9990           0
   12401 QQQ  776  NMP  C1   CG331     -0.161000       12.0110           0
   12402 QQQ  776  NMP  H1   HGA3       0.090000        1.0080           0
   12403 QQQ  776  NMP  H2   HGA3       0.090000        1.0080           0
   12404 QQQ  776  NMP  H3   HGA3       0.090000        1.0080           0
   12405 QQQ  776  NMP  N2   NG2R53    -0.098000       14.0070           0
   12406 QQQ  776  NMP  C3   CG3C52    -0.077000       12.0110           0
   12407 QQQ  776  NMP  H4   HGA2       0.090000        1.0080           0
   12408 QQQ  776  NMP  H5   HGA2       0.090000        1.0080           0
   12409 QQQ  776  NMP  C4   CG3C52    -0.233000       12.0110           0
   12410 QQQ  776  NMP  H6   HGA2       0.090000        1.0080           0
   12411 QQQ  776  NMP  H7   HGA2       0.090000        1.0080           0
   12412 QQQ  776  NMP  C5   CG3C52    -0.027000       12.0110           0
   12413 QQQ  776  NMP  H8   HGA2       0.090000        1.0080           0
   12414 QQQ  776  NMP  H9   HGA2       0.090000        1.0080           0
   12415 QQQ  776  NMP  C6   CG2R53     0.286000       12.0110           0
   12416 QQQ  776  NMP  O7   OG2D1     -0.500000       15.9990           0
   12417 QQQ  777  NMP  C1   CG331     -0.161000       12.0110           0
   12418 QQQ  777  NMP  H1   HGA3       0.090000        1.0080           0
   12419 QQQ  777  NMP  H2   HGA3       0.090000        1.0080           0
   12420 QQQ  777  NMP  H3   HGA3       0.090000        1.0080           0
   12421 QQQ  777  NMP  N2   NG2R53    -0.098000       14.0070           0
   12422 QQQ  777  NMP  C3   CG3C52    -0.077000       12.0110           0
   12423 QQQ  777  NMP  H4   HGA2       0.090000        1.0080           0
   12424 QQQ  777  NMP  H5   HGA2       0.090000        1.0080           0
   12425 QQQ  777  NMP  C4   CG3C52    -0.233000       12.0110           0
   12426 QQQ  777  NMP  H6   HGA2       0.090000        1.0080           0
   12427 QQQ  777  NMP  H7   HGA2       0.090000        1.0080           0
   12428 QQQ  777  NMP  C5   CG3C52    -0.027000       12.0110           0
   12429 QQQ  777  NMP  H8   HGA2       0.090000        1.0080           0
   12430 QQQ  777  NMP  H9   HGA2       0.090000        1.0080           0
   12431 QQQ  777  NMP  C6   CG2R53     0.286000       12.0110           0
   12432 QQQ  777  NMP  O7   OG2D1     -0.500000       15.9990           0
   12433 QQQ  778  NMP  C1   CG331     -0.161000       12.0110           0
   12434 QQQ  778  NMP  H1   HGA3       0.090000        1.0080           0
   12435 QQQ  778  NMP  H2   HGA3       0.090000        1.0080           0
   12436 QQQ  778  NMP  H3   HGA3       0.090000        1.0080           0
   12437 QQQ  778  NMP  N2   NG2R53    -0.098000       14.0070           0
   12438 QQQ  778  NMP  C3   CG3C52    -0.077000       12.0110           0
   12439 QQQ  778  NMP  H4   HGA2       0.090000        1.0080           0
   12440 QQQ  778  NMP  H5   HGA2       0.090000        1.0080           0
   12441 QQQ  778  NMP  C4   CG3C52    -0.233000       12.0110           0
   12442 QQQ  778  NMP  H6   HGA2       0.090000        1.0080           0
   12443 QQQ  778  NMP  H7   HGA2       0.090000        1.0080           0
   12444 QQQ  778  NMP  C5   CG3C52    -0.027000       12.0110           0
   12445 QQQ  778  NMP  H8   HGA2       0.090000        1.0080           0
   12446 QQQ  778  NMP  H9   HGA2       0.090000        1.0080           0
   12447 QQQ  778  NMP  C6   CG2R53     0.286000       12.0110           0
   12448 QQQ  778  NMP  O7   OG2D1     -0.500000       15.9990           0
   12449 QQQ  779  NMP  C1   CG331     -0.161000       12.0110           0
   12450 QQQ  779  NMP  H1   HGA3       0.090000        1.0080           0
   12451 QQQ  779  NMP  H2   HGA3       0.090000        1.0080           0
   12452 QQQ  779  NMP  H3   HGA3       0.090000        1.0080           0
   12453 QQQ  779  NMP  N2   NG2R53    -0.098000       14.0070           0
   12454 QQQ  779  NMP  C3   CG3C52    -0.077000       12.0110           0
   12455 QQQ  779  NMP  H4   HGA2       0.090000        1.0080           0
   12456 QQQ  779  NMP  H5   HGA2       0.090000        1.0080           0
   12457 QQQ  779  NMP  C4   CG3C52    -0.233000       12.0110           0
   12458 QQQ  779  NMP  H6   HGA2       0.090000        1.0080           0
   12459 QQQ  779  NMP  H7   HGA2       0.090000        1.0080           0
   12460 QQQ  779  NMP  C5   CG3C52    -0.027000       12.0110           0
   12461 QQQ  779  NMP  H8   HGA2       0.090000        1.0080           0
   12462 QQQ  779  NMP  H9   HGA2       0.090000        1.0080           0
   12463 QQQ  779  NMP  C6   CG2R53     0.286000       12.0110           0
   12464 QQQ  779  NMP  O7   OG2D1     -0.500000       15.9990           0
   12465 QQQ  780  NMP  C1   CG331     -0.161000       12.0110           0
   12466 QQQ  780  NMP  H1   HGA3       0.090000        1.0080           0
   12467 QQQ  780  NMP  H2   HGA3       0.090000        1.0080           0
   12468 QQQ  780  NMP  H3   HGA3       0.090000        1.0080           0
   12469 QQQ  780  NMP  N2   NG2R53    -0.098000       14.0070           0
   12470 QQQ  780  NMP  C3   CG3C52    -0.077000       12.0110           0
   12471 QQQ  780  NMP  H4   HGA2       0.090000        1.0080           0
   12472 QQQ  780  NMP  H5   HGA2       0.090000        1.0080           0
   12473 QQQ  780  NMP  C4   CG3C52    -0.233000       12.0110           0
   12474 QQQ  780  NMP  H6   HGA2       0.090000        1.0080           0
   12475 QQQ  780  NMP  H7   HGA2       0.090000        1.0080           0
   12476 QQQ  780  NMP  C5   CG3C52    -0.027000       12.0110           0
   12477 QQQ  780  NMP  H8   HGA2       0.090000        1.0080           0
   12478 QQQ  780  NMP  H9   HGA2       0.090000        1.0080           0
   12479 QQQ  780  NMP  C6   CG2R53     0.286000       12.0110           0
   12480 QQQ  780  NMP  O7   OG2D1     -0.500000       15.9990           0
   12481 QQQ  781  NMP  C1   CG331     -0.161000       12.0110           0
   12482 QQQ  781  NMP  H1   HGA3       0.090000        1.0080           0
   12483 QQQ  781  NMP  H2   HGA3       0.090000        1.0080           0
   12484 QQQ  781  NMP  H3   HGA3       0.090000        1.0080           0
   12485 QQQ  781  NMP  N2   NG2R53    -0.098000       14.0070           0
   12486 QQQ  781  NMP  C3   CG3C52    -0.077000       12.0110           0
   12487 QQQ  781  NMP  H4   HGA2       0.090000        1.0080           0
   12488 QQQ  781  NMP  H5   HGA2       0.090000        1.0080           0
   12489 QQQ  781  NMP  C4   CG3C52    -0.233000       12.0110           0
   12490 QQQ  781  NMP  H6   HGA2       0.090000        1.0080           0
   12491 QQQ  781  NMP  H7   HGA2       0.090000        1.0080           0
   12492 QQQ  781  NMP  C5   CG3C52    -0.027000       12.0110           0
   12493 QQQ  781  NMP  H8   HGA2       0.090000        1.0080           0
   12494 QQQ  781  NMP  H9   HGA2       0.090000        1.0080           0
   12495 QQQ  781  NMP  C6   CG2R53     0.286000       12.0110           0
   12496 QQQ  781  NMP  O7   OG2D1     -0.500000       15.9990           0
   12497 QQQ  782  NMP  C1   CG331     -0.161000       12.0110           0
   12498 QQQ  782  NMP  H1   HGA3       0.090000        1.0080           0
   12499 QQQ  782  NMP  H2   HGA3       0.090000        1.0080           0
   12500 QQQ  782  NMP  H3   HGA3       0.090000        1.0080           0
   12501 QQQ  782  NMP  N2   NG2R53    -0.098000       14.0070           0
   12502 QQQ  782  NMP  C3   CG3C52    -0.077000       12.0110           0
   12503 QQQ  782  NMP  H4   HGA2       0.090000        1.0080           0
   12504 QQQ  782  NMP  H5   HGA2       0.090000        1.0080           0
   12505 QQQ  782  NMP  C4   CG3C52    -0.233000       12.0110           0
   12506 QQQ  782  NMP  H6   HGA2       0.090000        1.0080           0
   12507 QQQ  782  NMP  H7   HGA2       0.090000        1.0080           0
   12508 QQQ  782  NMP  C5   CG3C52    -0.027000       12.0110           0
   12509 QQQ  782  NMP  H8   HGA2       0.090000        1.0080           0
   12510 QQQ  782  NMP  H9   HGA2       0.090000        1.0080           0
   12511 QQQ  782  NMP  C6   CG2R53     0.286000       12.0110           0
   12512 QQQ  782  NMP  O7   OG2D1     -0.500000       15.9990           0
   12513 QQQ  783  NMP  C1   CG331     -0.161000       12.0110           0
   12514 QQQ  783  NMP  H1   HGA3       0.090000        1.0080           0
   12515 QQQ  783  NMP  H2   HGA3       0.090000        1.0080           0
   12516 QQQ  783  NMP  H3   HGA3       0.090000        1.0080           0
   12517 QQQ  783  NMP  N2   NG2R53    -0.098000       14.0070           0
   12518 QQQ  783  NMP  C3   CG3C52    -0.077000       12.0110           0
   12519 QQQ  783  NMP  H4   HGA2       0.090000        1.0080           0
   12520 QQQ  783  NMP  H5   HGA2       0.090000        1.0080           0
   12521 QQQ  783  NMP  C4   CG3C52    -0.233000       12.0110           0
   12522 QQQ  783  NMP  H6   HGA2       0.090000        1.0080           0
   12523 QQQ  783  NMP  H7   HGA2       0.090000        1.0080           0
   12524 QQQ  783  NMP  C5   CG3C52    -0.027000       12.0110           0
   12525 QQQ  783  NMP  H8   HGA2       0.090000        1.0080           0
   12526 QQQ  783  NMP  H9   HGA2       0.090000        1.0080           0
   12527 QQQ  783  NMP  C6   CG2R53     0.286000       12.0110           0
   12528 QQQ  783  NMP  O7   OG2D1     -0.500000       15.9990           0
   12529 QQQ  784  NMP  C1   CG331     -0.161000       12.0110           0
   12530 QQQ  784  NMP  H1   HGA3       0.090000        1.0080           0
   12531 QQQ  784  NMP  H2   HGA3       0.090000        1.0080           0
   12532 QQQ  784  NMP  H3   HGA3       0.090000        1.0080           0
   12533 QQQ  784  NMP  N2   NG2R53    -0.098000       14.0070           0
   12534 QQQ  784  NMP  C3   CG3C52    -0.077000       12.0110           0
   12535 QQQ  784  NMP  H4   HGA2       0.090000        1.0080           0
   12536 QQQ  784  NMP  H5   HGA2       0.090000        1.0080           0
   12537 QQQ  784  NMP  C4   CG3C52    -0.233000       12.0110           0
   12538 QQQ  784  NMP  H6   HGA2       0.090000        1.0080           0
   12539 QQQ  784  NMP  H7   HGA2       0.090000        1.0080           0
   12540 QQQ  784  NMP  C5   CG3C52    -0.027000       12.0110           0
   12541 QQQ  784  NMP  H8   HGA2       0.090000        1.0080           0
   12542 QQQ  784  NMP  H9   HGA2       0.090000        1.0080           0
   12543 QQQ  784  NMP  C6   CG2R53     0.286000       12.0110           0
   12544 QQQ  784  NMP  O7   OG2D1     -0.500000       15.9990           0
   12545 QQQ  785  NMP  C1   CG331     -0.161000       12.0110           0
   12546 QQQ  785  NMP  H1   HGA3       0.090000        1.0080           0
   12547 QQQ  785  NMP  H2   HGA3       0.090000        1.0080           0
   12548 QQQ  785  NMP  H3   HGA3       0.090000        1.0080           0
   12549 QQQ  785  NMP  N2   NG2R53    -0.098000       14.0070           0
   12550 QQQ  785  NMP  C3   CG3C52    -0.077000       12.0110           0
   12551 QQQ  785  NMP  H4   HGA2       0.090000        1.0080           0
   12552 QQQ  785  NMP  H5   HGA2       0.090000        1.0080           0
   12553 QQQ  785  NMP  C4   CG3C52    -0.233000       12.0110           0
   12554 QQQ  785  NMP  H6   HGA2       0.090000        1.0080           0
   12555 QQQ  785  NMP  H7   HGA2       0.090000        1.0080           0
   12556 QQQ  785  NMP  C5   CG3C52    -0.027000       12.0110           0
   12557 QQQ  785  NMP  H8   HGA2       0.090000        1.0080           0
   12558 QQQ  785  NMP  H9   HGA2       0.090000        1.0080           0
   12559 QQQ  785  NMP  C6   CG2R53     0.286000       12.0110           0
   12560 QQQ  785  NMP  O7   OG2D1     -0.500000       15.9990           0
   12561 QQQ  786  NMP  C1   CG331     -0.161000       12.0110           0
   12562 QQQ  786  NMP  H1   HGA3       0.090000        1.0080           0
   12563 QQQ  786  NMP  H2   HGA3       0.090000        1.0080           0
   12564 QQQ  786  NMP  H3   HGA3       0.090000        1.0080           0
   12565 QQQ  786  NMP  N2   NG2R53    -0.098000       14.0070           0
   12566 QQQ  786  NMP  C3   CG3C52    -0.077000       12.0110           0
   12567 QQQ  786  NMP  H4   HGA2       0.090000        1.0080           0
   12568 QQQ  786  NMP  H5   HGA2       0.090000        1.0080           0
   12569 QQQ  786  NMP  C4   CG3C52    -0.233000       12.0110           0
   12570 QQQ  786  NMP  H6   HGA2       0.090000        1.0080           0
   12571 QQQ  786  NMP  H7   HGA2       0.090000        1.0080           0
   12572 QQQ  786  NMP  C5   CG3C52    -0.027000       12.0110           0
   12573 QQQ  786  NMP  H8   HGA2       0.090000        1.0080           0
   12574 QQQ  786  NMP  H9   HGA2       0.090000        1.0080           0
   12575 QQQ  786  NMP  C6   CG2R53     0.286000       12.0110           0
   12576 QQQ  786  NMP  O7   OG2D1     -0.500000       15.9990           0
   12577 QQQ  787  NMP  C1   CG331     -0.161000       12.0110           0
   12578 QQQ  787  NMP  H1   HGA3       0.090000        1.0080           0
   12579 QQQ  787  NMP  H2   HGA3       0.090000        1.0080           0
   12580 QQQ  787  NMP  H3   HGA3       0.090000        1.0080           0
   12581 QQQ  787  NMP  N2   NG2R53    -0.098000       14.0070           0
   12582 QQQ  787  NMP  C3   CG3C52    -0.077000       12.0110           0
   12583 QQQ  787  NMP  H4   HGA2       0.090000        1.0080           0
   12584 QQQ  787  NMP  H5   HGA2       0.090000        1.0080           0
   12585 QQQ  787  NMP  C4   CG3C52    -0.233000       12.0110           0
   12586 QQQ  787  NMP  H6   HGA2       0.090000        1.0080           0
   12587 QQQ  787  NMP  H7   HGA2       0.090000        1.0080           0
   12588 QQQ  787  NMP  C5   CG3C52    -0.027000       12.0110           0
   12589 QQQ  787  NMP  H8   HGA2       0.090000        1.0080           0
   12590 QQQ  787  NMP  H9   HGA2       0.090000        1.0080           0
   12591 QQQ  787  NMP  C6   CG2R53     0.286000       12.0110           0
   12592 QQQ  787  NMP  O7   OG2D1     -0.500000       15.9990           0
   12593 QQQ  788  NMP  C1   CG331     -0.161000       12.0110           0
   12594 QQQ  788  NMP  H1   HGA3       0.090000        1.0080           0
   12595 QQQ  788  NMP  H2   HGA3       0.090000        1.0080           0
   12596 QQQ  788  NMP  H3   HGA3       0.090000        1.0080           0
   12597 QQQ  788  NMP  N2   NG2R53    -0.098000       14.0070           0
   12598 QQQ  788  NMP  C3   CG3C52    -0.077000       12.0110           0
   12599 QQQ  788  NMP  H4   HGA2       0.090000        1.0080           0
   12600 QQQ  788  NMP  H5   HGA2       0.090000        1.0080           0
   12601 QQQ  788  NMP  C4   CG3C52    -0.233000       12.0110           0
   12602 QQQ  788  NMP  H6   HGA2       0.090000        1.0080           0
   12603 QQQ  788  NMP  H7   HGA2       0.090000        1.0080           0
   12604 QQQ  788  NMP  C5   CG3C52    -0.027000       12.0110           0
   12605 QQQ  788  NMP  H8   HGA2       0.090000        1.0080           0
   12606 QQQ  788  NMP  H9   HGA2       0.090000        1.0080           0
   12607 QQQ  788  NMP  C6   CG2R53     0.286000       12.0110           0
   12608 QQQ  788  NMP  O7   OG2D1     -0.500000       15.9990           0
   12609 QQQ  789  NMP  C1   CG331     -0.161000       12.0110           0
   12610 QQQ  789  NMP  H1   HGA3       0.090000        1.0080           0
   12611 QQQ  789  NMP  H2   HGA3       0.090000        1.0080           0
   12612 QQQ  789  NMP  H3   HGA3       0.090000        1.0080           0
   12613 QQQ  789  NMP  N2   NG2R53    -0.098000       14.0070           0
   12614 QQQ  789  NMP  C3   CG3C52    -0.077000       12.0110           0
   12615 QQQ  789  NMP  H4   HGA2       0.090000        1.0080           0
   12616 QQQ  789  NMP  H5   HGA2       0.090000        1.0080           0
   12617 QQQ  789  NMP  C4   CG3C52    -0.233000       12.0110           0
   12618 QQQ  789  NMP  H6   HGA2       0.090000        1.0080           0
   12619 QQQ  789  NMP  H7   HGA2       0.090000        1.0080           0
   12620 QQQ  789  NMP  C5   CG3C52    -0.027000       12.0110           0
   12621 QQQ  789  NMP  H8   HGA2       0.090000        1.0080           0
   12622 QQQ  789  NMP  H9   HGA2       0.090000        1.0080           0
   12623 QQQ  789  NMP  C6   CG2R53     0.286000       12.0110           0
   12624 QQQ  789  NMP  O7   OG2D1     -0.500000       15.9990           0
   12625 QQQ  790  NMP  C1   CG331     -0.161000       12.0110           0
   12626 QQQ  790  NMP  H1   HGA3       0.090000        1.0080           0
   12627 QQQ  790  NMP  H2   HGA3       0.090000        1.0080           0
   12628 QQQ  790  NMP  H3   HGA3       0.090000        1.0080           0
   12629 QQQ  790  NMP  N2   NG2R53    -0.098000       14.0070           0
   12630 QQQ  790  NMP  C3   CG3C52    -0.077000       12.0110           0
   12631 QQQ  790  NMP  H4   HGA2       0.090000        1.0080           0
   12632 QQQ  790  NMP  H5   HGA2       0.090000        1.0080           0
   12633 QQQ  790  NMP  C4   CG3C52    -0.233000       12.0110           0
   12634 QQQ  790  NMP  H6   HGA2       0.090000        1.0080           0
   12635 QQQ  790  NMP  H7   HGA2       0.090000        1.0080           0
   12636 QQQ  790  NMP  C5   CG3C52    -0.027000       12.0110           0
   12637 QQQ  790  NMP  H8   HGA2       0.090000        1.0080           0
   12638 QQQ  790  NMP  H9   HGA2       0.090000        1.0080           0
   12639 QQQ  790  NMP  C6   CG2R53     0.286000       12.0110           0
   12640 QQQ  790  NMP  O7   OG2D1     -0.500000       15.9990           0
   12641 QQQ  791  NMP  C1   CG331     -0.161000       12.0110           0
   12642 QQQ  791  NMP  H1   HGA3       0.090000        1.0080           0
   12643 QQQ  791  NMP  H2   HGA3       0.090000        1.0080           0
   12644 QQQ  791  NMP  H3   HGA3       0.090000        1.0080           0
   12645 QQQ  791  NMP  N2   NG2R53    -0.098000       14.0070           0
   12646 QQQ  791  NMP  C3   CG3C52    -0.077000       12.0110           0
   12647 QQQ  791  NMP  H4   HGA2       0.090000        1.0080           0
   12648 QQQ  791  NMP  H5   HGA2       0.090000        1.0080           0
   12649 QQQ  791  NMP  C4   CG3C52    -0.233000       12.0110           0
   12650 QQQ  791  NMP  H6   HGA2       0.090000        1.0080           0
   12651 QQQ  791  NMP  H7   HGA2       0.090000        1.0080           0
   12652 QQQ  791  NMP  C5   CG3C52    -0.027000       12.0110           0
   12653 QQQ  791  NMP  H8   HGA2       0.090000        1.0080           0
   12654 QQQ  791  NMP  H9   HGA2       0.090000        1.0080           0
   12655 QQQ  791  NMP  C6   CG2R53     0.286000       12.0110           0
   12656 QQQ  791  NMP  O7   OG2D1     -0.500000       15.9990           0
   12657 QQQ  792  NMP  C1   CG331     -0.161000       12.0110           0
   12658 QQQ  792  NMP  H1   HGA3       0.090000        1.0080           0
   12659 QQQ  792  NMP  H2   HGA3       0.090000        1.0080           0
   12660 QQQ  792  NMP  H3   HGA3       0.090000        1.0080           0
   12661 QQQ  792  NMP  N2   NG2R53    -0.098000       14.0070           0
   12662 QQQ  792  NMP  C3   CG3C52    -0.077000       12.0110           0
   12663 QQQ  792  NMP  H4   HGA2       0.090000        1.0080           0
   12664 QQQ  792  NMP  H5   HGA2       0.090000        1.0080           0
   12665 QQQ  792  NMP  C4   CG3C52    -0.233000       12.0110           0
   12666 QQQ  792  NMP  H6   HGA2       0.090000        1.0080           0
   12667 QQQ  792  NMP  H7   HGA2       0.090000        1.0080           0
   12668 QQQ  792  NMP  C5   CG3C52    -0.027000       12.0110           0
   12669 QQQ  792  NMP  H8   HGA2       0.090000        1.0080           0
   12670 QQQ  792  NMP  H9   HGA2       0.090000        1.0080           0
   12671 QQQ  792  NMP  C6   CG2R53     0.286000       12.0110           0
   12672 QQQ  792  NMP  O7   OG2D1     -0.500000       15.9990           0
   12673 QQQ  793  NMP  C1   CG331     -0.161000       12.0110           0
   12674 QQQ  793  NMP  H1   HGA3       0.090000        1.0080           0
   12675 QQQ  793  NMP  H2   HGA3       0.090000        1.0080           0
   12676 QQQ  793  NMP  H3   HGA3       0.090000        1.0080           0
   12677 QQQ  793  NMP  N2   NG2R53    -0.098000       14.0070           0
   12678 QQQ  793  NMP  C3   CG3C52    -0.077000       12.0110           0
   12679 QQQ  793  NMP  H4   HGA2       0.090000        1.0080           0
   12680 QQQ  793  NMP  H5   HGA2       0.090000        1.0080           0
   12681 QQQ  793  NMP  C4   CG3C52    -0.233000       12.0110           0
   12682 QQQ  793  NMP  H6   HGA2       0.090000        1.0080           0
   12683 QQQ  793  NMP  H7   HGA2       0.090000        1.0080           0
   12684 QQQ  793  NMP  C5   CG3C52    -0.027000       12.0110           0
   12685 QQQ  793  NMP  H8   HGA2       0.090000        1.0080           0
   12686 QQQ  793  NMP  H9   HGA2       0.090000        1.0080           0
   12687 QQQ  793  NMP  C6   CG2R53     0.286000       12.0110           0
   12688 QQQ  793  NMP  O7   OG2D1     -0.500000       15.9990           0
   12689 QQQ  794  NMP  C1   CG331     -0.161000       12.0110           0
   12690 QQQ  794  NMP  H1   HGA3       0.090000        1.0080           0
   12691 QQQ  794  NMP  H2   HGA3       0.090000        1.0080           0
   12692 QQQ  794  NMP  H3   HGA3       0.090000        1.0080           0
   12693 QQQ  794  NMP  N2   NG2R53    -0.098000       14.0070           0
   12694 QQQ  794  NMP  C3   CG3C52    -0.077000       12.0110           0
   12695 QQQ  794  NMP  H4   HGA2       0.090000        1.0080           0
   12696 QQQ  794  NMP  H5   HGA2       0.090000        1.0080           0
   12697 QQQ  794  NMP  C4   CG3C52    -0.233000       12.0110           0
   12698 QQQ  794  NMP  H6   HGA2       0.090000        1.0080           0
   12699 QQQ  794  NMP  H7   HGA2       0.090000        1.0080           0
   12700 QQQ  794  NMP  C5   CG3C52    -0.027000       12.0110           0
   12701 QQQ  794  NMP  H8   HGA2       0.090000        1.0080           0
   12702 QQQ  794  NMP  H9   HGA2       0.090000        1.0080           0
   12703 QQQ  794  NMP  C6   CG2R53     0.286000       12.0110           0
   12704 QQQ  794  NMP  O7   OG2D1     -0.500000       15.9990           0
   12705 QQQ  795  NMP  C1   CG331     -0.161000       12.0110           0
   12706 QQQ  795  NMP  H1   HGA3       0.090000        1.0080           0
   12707 QQQ  795  NMP  H2   HGA3       0.090000        1.0080           0
   12708 QQQ  795  NMP  H3   HGA3       0.090000        1.0080           0
   12709 QQQ  795  NMP  N2   NG2R53    -0.098000       14.0070           0
   12710 QQQ  795  NMP  C3   CG3C52    -0.077000       12.0110           0
   12711 QQQ  795  NMP  H4   HGA2       0.090000        1.0080           0
   12712 QQQ  795  NMP  H5   HGA2       0.090000        1.0080           0
   12713 QQQ  795  NMP  C4   CG3C52    -0.233000       12.0110           0
   12714 QQQ  795  NMP  H6   HGA2       0.090000        1.0080           0
   12715 QQQ  795  NMP  H7   HGA2       0.090000        1.0080           0
   12716 QQQ  795  NMP  C5   CG3C52    -0.027000       12.0110           0
   12717 QQQ  795  NMP  H8   HGA2       0.090000        1.0080           0
   12718 QQQ  795  NMP  H9   HGA2       0.090000        1.0080           0
   12719 QQQ  795  NMP  C6   CG2R53     0.286000       12.0110           0
   12720 QQQ  795  NMP  O7   OG2D1     -0.500000       15.9990           0
   12721 QQQ  796  NMP  C1   CG331     -0.161000       12.0110           0
   12722 QQQ  796  NMP  H1   HGA3       0.090000        1.0080           0
   12723 QQQ  796  NMP  H2   HGA3       0.090000        1.0080           0
   12724 QQQ  796  NMP  H3   HGA3       0.090000        1.0080           0
   12725 QQQ  796  NMP  N2   NG2R53    -0.098000       14.0070           0
   12726 QQQ  796  NMP  C3   CG3C52    -0.077000       12.0110           0
   12727 QQQ  796  NMP  H4   HGA2       0.090000        1.0080           0
   12728 QQQ  796  NMP  H5   HGA2       0.090000        1.0080           0
   12729 QQQ  796  NMP  C4   CG3C52    -0.233000       12.0110           0
   12730 QQQ  796  NMP  H6   HGA2       0.090000        1.0080           0
   12731 QQQ  796  NMP  H7   HGA2       0.090000        1.0080           0
   12732 QQQ  796  NMP  C5   CG3C52    -0.027000       12.0110           0
   12733 QQQ  796  NMP  H8   HGA2       0.090000        1.0080           0
   12734 QQQ  796  NMP  H9   HGA2       0.090000        1.0080           0
   12735 QQQ  796  NMP  C6   CG2R53     0.286000       12.0110           0
   12736 QQQ  796  NMP  O7   OG2D1     -0.500000       15.9990           0
   12737 QQQ  797  NMP  C1   CG331     -0.161000       12.0110           0
   12738 QQQ  797  NMP  H1   HGA3       0.090000        1.0080           0
   12739 QQQ  797  NMP  H2   HGA3       0.090000        1.0080           0
   12740 QQQ  797  NMP  H3   HGA3       0.090000        1.0080           0
   12741 QQQ  797  NMP  N2   NG2R53    -0.098000       14.0070           0
   12742 QQQ  797  NMP  C3   CG3C52    -0.077000       12.0110           0
   12743 QQQ  797  NMP  H4   HGA2       0.090000        1.0080           0
   12744 QQQ  797  NMP  H5   HGA2       0.090000        1.0080           0
   12745 QQQ  797  NMP  C4   CG3C52    -0.233000       12.0110           0
   12746 QQQ  797  NMP  H6   HGA2       0.090000        1.0080           0
   12747 QQQ  797  NMP  H7   HGA2       0.090000        1.0080           0
   12748 QQQ  797  NMP  C5   CG3C52    -0.027000       12.0110           0
   12749 QQQ  797  NMP  H8   HGA2       0.090000        1.0080           0
   12750 QQQ  797  NMP  H9   HGA2       0.090000        1.0080           0
   12751 QQQ  797  NMP  C6   CG2R53     0.286000       12.0110           0
   12752 QQQ  797  NMP  O7   OG2D1     -0.500000       15.9990           0
   12753 QQQ  798  NMP  C1   CG331     -0.161000       12.0110           0
   12754 QQQ  798  NMP  H1   HGA3       0.090000        1.0080           0
   12755 QQQ  798  NMP  H2   HGA3       0.090000        1.0080           0
   12756 QQQ  798  NMP  H3   HGA3       0.090000        1.0080           0
   12757 QQQ  798  NMP  N2   NG2R53    -0.098000       14.0070           0
   12758 QQQ  798  NMP  C3   CG3C52    -0.077000       12.0110           0
   12759 QQQ  798  NMP  H4   HGA2       0.090000        1.0080           0
   12760 QQQ  798  NMP  H5   HGA2       0.090000        1.0080           0
   12761 QQQ  798  NMP  C4   CG3C52    -0.233000       12.0110           0
   12762 QQQ  798  NMP  H6   HGA2       0.090000        1.0080           0
   12763 QQQ  798  NMP  H7   HGA2       0.090000        1.0080           0
   12764 QQQ  798  NMP  C5   CG3C52    -0.027000       12.0110           0
   12765 QQQ  798  NMP  H8   HGA2       0.090000        1.0080           0
   12766 QQQ  798  NMP  H9   HGA2       0.090000        1.0080           0
   12767 QQQ  798  NMP  C6   CG2R53     0.286000       12.0110           0
   12768 QQQ  798  NMP  O7   OG2D1     -0.500000       15.9990           0
   12769 QQQ  799  NMP  C1   CG331     -0.161000       12.0110           0
   12770 QQQ  799  NMP  H1   HGA3       0.090000        1.0080           0
   12771 QQQ  799  NMP  H2   HGA3       0.090000        1.0080           0
   12772 QQQ  799  NMP  H3   HGA3       0.090000        1.0080           0
   12773 QQQ  799  NMP  N2   NG2R53    -0.098000       14.0070           0
   12774 QQQ  799  NMP  C3   CG3C52    -0.077000       12.0110           0
   12775 QQQ  799  NMP  H4   HGA2       0.090000        1.0080           0
   12776 QQQ  799  NMP  H5   HGA2       0.090000        1.0080           0
   12777 QQQ  799  NMP  C4   CG3C52    -0.233000       12.0110           0
   12778 QQQ  799  NMP  H6   HGA2       0.090000        1.0080           0
   12779 QQQ  799  NMP  H7   HGA2       0.090000        1.0080           0
   12780 QQQ  799  NMP  C5   CG3C52    -0.027000       12.0110           0
   12781 QQQ  799  NMP  H8   HGA2       0.090000        1.0080           0
   12782 QQQ  799  NMP  H9   HGA2       0.090000        1.0080           0
   12783 QQQ  799  NMP  C6   CG2R53     0.286000       12.0110           0
   12784 QQQ  799  NMP  O7   OG2D1     -0.500000       15.9990           0
   12785 QQQ  800  NMP  C1   CG331     -0.161000       12.0110           0
   12786 QQQ  800  NMP  H1   HGA3       0.090000        1.0080           0
   12787 QQQ  800  NMP  H2   HGA3       0.090000        1.0080           0
   12788 QQQ  800  NMP  H3   HGA3       0.090000        1.0080           0
   12789 QQQ  800  NMP  N2   NG2R53    -0.098000       14.0070           0
   12790 QQQ  800  NMP  C3   CG3C52    -0.077000       12.0110           0
   12791 QQQ  800  NMP  H4   HGA2       0.090000        1.0080           0
   12792 QQQ  800  NMP  H5   HGA2       0.090000        1.0080           0
   12793 QQQ  800  NMP  C4   CG3C52    -0.233000       12.0110           0
   12794 QQQ  800  NMP  H6   HGA2       0.090000        1.0080           0
   12795 QQQ  800  NMP  H7   HGA2       0.090000        1.0080           0
   12796 QQQ  800  NMP  C5   CG3C52    -0.027000       12.0110           0
   12797 QQQ  800  NMP  H8   HGA2       0.090000        1.0080           0
   12798 QQQ  800  NMP  H9   HGA2       0.090000        1.0080           0
   12799 QQQ  800  NMP  C6   CG2R53     0.286000       12.0110           0
   12800 QQQ  800  NMP  O7   OG2D1     -0.500000       15.9990           0

   12800 !NBOND: bonds
       1       2       1       3       1       4       1       5
       5       6       5      15       6       7       6       8
       6       9       9      10       9      11       9      12
      12      13      12      14      12      15      15      16
      17      18      17      19      17      20      17      21
      21      22      21      31      22      23      22      24
      22      25      25      26      25      27      25      28
      28      29      28      30      28      31      31      32
      33      34      33      35      33      36      33      37
      37      38      37      47      38      39      38      40
      38      41      41      42      41      43      41      44
      44      45      44      46      44      47      47      48
      49      50      49      51      49      52      49      53
      53      54      53      63      54      55      54      56
      54      57      57      58      57      59      57      60
      60      61      60      62      60      63      63      64
      65      66      65      67      65      68      65      69
      69      70      69      79      70      71      70      72
      70      73      73      74      73      75      73      76
      76      77      76      78      76      79      79      80
      81      82      81      83      81      84      81      85
      85      86      85      95      86      87      86      88
      86      89      89      90      89      91      89      92
      92      93      92      94      92      95      95      96
      97      98      97      99      97     100      97     101
     101     102     101     111     102     103     102     104
     102     105     105     106     105     107     105     108
     108     109     108     110     108     111     111     112
     113     114     113     115     113     116     113     117
     117     118     117     127     118     119     118     120
     118     121     121     122     121     123     121     124
     124     125     124     126     124     127     127     128
     129     130     129     131     129     132     129     133
     133     134     133     143     134     135     134     136
     134     137     137     138     137     139     137     140
     140     141     140     142     140     143     143     144
     145     146     145     147     145     148     145     149
     149     150     149     159     150     151     150     152
     150     153     153     154     153     155     153     156
     156     157     156     158     156     159     159     160
     161     162     161     163     161     164     161     165
     165     166     165     175     166     167     166     168
     166     169     169     170     169     171     169     172
     172     173     172     174     172     175     175     176
     177     178     177     179     177     180     177     181
     181     182     181     191     182     183     182     184
     182     185     185     186     185     187     185     188
     188     189     188     190     188     191     191     192
     193     194     193     195     193     196     193     197
     197     198     197     207     198     199     198     200
     198     201     201     202     201     203     201     204
     204     205     204     206     204     207     207     208
     209     210     209     211     209     212     209     213
     213     214     213     223     214     215     214     216
     214     217     217     218     217     219     217     220
     220     221     220     222     220     223     223     224
     225     226     225     227     225     228     225     229
     229     230     229     239     230     231     230     232
     230     233     233     234     233     235     233     236
     236     237     236     238     236     239     239     240
     241     242     241     243     241     244     241     245
     245     246     245     255     246     247     246     248
     246     249     249     250     249     251     249     252
     252     253     252     254     252     255     255     256
     257     258     257     259     257     260     257     261
     261     262     261     271     262     263     262     264
     262     265     265     266     265     267     265     268
     268     269     268     270     268     271     271     272
     273     274     273     275     273     276     273     277
     277     278     277     287     278     279     278     280
     278     281     281     282     281     283     281     284
     284     285     284     286     284     287     287     288
     289     290     289     291     289     292     289     293
     293     294     293     303     294     295     294     296
     294     297     297     298     297     299     297     300
     300     301     300     302     300     303     303     304
     305     306     305     307     305     308     305     309
     309     310     309     319     310     311     310     312
     310     313     313     314     313     315     313     316
     316     317     316     318     316     319     319     320
     321     322     321     323     321     324     321     325
     325     326     325     335     326     327     326     328
     326     329     329     330     329     331     329     332
     332     333     332     334     332     335     335     336
     337     338     337     339     337     340     337     341
     341     342     341     351     342     343     342     344
     342     345     345     346     345     347     345     348
     348     349     348     350     348     351     351     352
     353     354     353     355     353     356     353     357
     357     358     357     367     358     359     358     360
     358     361     361     362     361     363     361     364
     364     365     364     366     364     367     367     368
     369     370     369     371     369     372     369     373
     373     374     373     383     374     375     374     376
     374     377     377     378     377     379     377     380
     380     381     380     382     380     383     383     384
     385     386     385     387     385     388     385     389
     389     390     389     399     390     391     390     392
     390     393     393     394     393     395     393     396
     396     397     396     398     396     399     399     400
     401     402     401     403     401     404     401     405
     405     406     405     415     406     407     406     408
     406     409     409     410     409     411     409     412
     412     413     412     414     412     415     415     416
     417     418     417     419     417     420     417     421
     421     422     421     431     422     423     422     424
     422     425     425     426     425     427     425     428
     428     429     428     430     428     431     431     432
     433     434     433     435     433     436     433     437
     437     438     437     447     438     439     438     440
     438     441     441     442     441     443     441     444
     444     445     444     446     444     447     447     448
     449     450     449     451     449     452     449     453
     453     454     453     463     454     455     454     456
     454     457     457     458     457     459     457     460
     460     461     460     462     460     463     463     464
     465     466     465     467     465     468     465     469
     469     470     469     479     470     471     470     472
     470     473     473     474     473     475     473     476
     476     477     476     478     476     479     479     480
     481     482     481     483     481     484     481     485
     485     486     485     495     486     487     486     488
     486     489     489     490     489     491     489     492
     492     493     492     494     492     495     495     496
     497     498     497     499     497     500     497     501
     501     502     501     511     502     503     502     504
     502     505     505     506     505     507     505     508
     508     509     508     510     508     511     511     512
     513     514     513     515     513     516     513     517
     517     518     517     527     518     519     518     520
     518     521     521     522     521     523     521     524
     524     525     524     526     524     527     527     528
     529     530     529     531     529     532     529     533
     533     534     533     543     534     535     534     536
     534     537     537     538     537     539     537     540
     540     541     540     542     540     543     543     544
     545     546     545     547     545     548     545     549
     549     550     549     559     550     551     550     552
     550     553     553     554     553     555     553     556
     556     557     556     558     556     559     559     560
     561     562     561     563     561     564     561     565
     565     566     565     575     566     567     566     568
     566     569     569     570     569     571     569     572
     572     573     572     574     572     575     575     576
     577     578     577     579     577     580     577     581
     581     582     581     591     582     583     582     584
     582     585     585     586     585     587     585     588
     588     589     588     590     588     591     591     592
     593     594     593     595     593     596     593     597
     597     598     597     607     598     599     598     600
     598     601     601     602     601     603     601     604
     604     605     604     606     604     607     607     608
     609     610     609     611     609     612     609     613
     613     614     613     623     614     615     614     616
     614     617     617     618     617     619     617     620
     620     621     620     622     620     623     623     624
     625     626     625     627     625     628     625     629
     629     630     629     639     630     631     630     632
     630     633     633     634     633     635     633     636
     636     637     636     638     636     639     639     640
     641     642     641     643     641     644     641     645
     645     646     645     655     646     647     646     648
     646     649     649     650     649     651     649     652
     652     653     652     654     652     655     655     656
     657     658     657     659     657     660     657     661
     661     662     661     671     662     663     662     664
     662     665     665     666     665     667     665     668
     668     669     668     670     668     671     671     672
     673     674     673     675     673     676     673     677
     677     678     677     687     678     679     678     680
     678     681     681     682     681     683     681     684
     684     685     684     686     684     687     687     688
     689     690     689     691     689     692     689     693
     693     694     693     703     694     695     694     696
     694     697     697     698     697     699     697     700
     700     701     700     702     700     703     703     704
     705     706     705     707     705     708     705     709
     709     710     709     719     710     711     710     712
     710     713     713     714     713     715     713     716
     716     717     716     718     716     719     719     720
     721     722     721     723     721     724     721     725
     725     726     725     735     726     727     726     728
     726     729     729     730     729     731     729     732
     732     733     732     734     732     735     735     736
     737     738     737     739     737     740     737     741
     741     742     741     751     742     743     742     744
     742     745     745     746     745     747     745     748
     748     749     748     750     748     751     751     752
     753     754     753     755     753     756     753     757
     757     758     757     767     758     759     758     760
     758     761     761     762     761     763     761     764
     764     765     764     766     764     767     767     768
     769     770     769     771     769     772     769     773
     773     774     773     783     774     775     774     776
     774     777     777     778     777     779     777     780
     780     781     780     782     780     783     783     784
     785     786     785     787     785     788     785     789
     789     790     789     799     790     791     790     792
     790     793     793     794     793     795     793     796
     796     797     796     798     796     799     799     800
     801     802     801     803     801     804     801     805
     805     806     805     815     806     807     806     808
     806     809     809     810     809     811     809     812
     812     813     812     814     812     815     815     816
     817     818     817     819     817     820     817     821
     821     822     821     831     822     823     822     824
     822     825     825     826     825     827     825     828
     828     829     828     830     828     831     831     832
     833     834     833     835     833     836     833     837
     837     838     837     847     838     839     838     840
     838     841     841     842     841     843     841     844
     844     845     844     846     844     847     847     848
     849     850     849     851     849     852     849     853
     853     854     853     863     854     855     854     856
     854     857     857     858     857     859     857     860
     860     861     860     862     860     863     863     864
     865     866     865     867     865     868     865     869
     869     870     869     879     870     871     870     872
     870     873     873     874     873     875     873     876
     876     877     876     878     876     879     879     880
     881     882     881     883     881     884     881     885
     885     886     885     895     886     887     886     888
     886     889     889     890     889     891     889     892
     892     893     892     894     892     895     895     896
     897     898     897     899     897     900     897     901
     901     902     901     911     902     903     902     904
     902     905     905     906     905     907     905     908
     908     909     908     910     908     911     911     912
     913     914     913     915     913     916     913     917
     917     918     917     927     918     919     918     920
     918     921     921     922     921     923     921     924
     924     925     924     926     924     927     927     928
     929     930     929     931     929     932     929     933
     933     934     933     943     934     935     934     936
     934     937     937     938     937     939     937     940
     940     941     940     942     940     943     943     944
     945     946     945     947     945     948     945     949
     949     950     949     959     950     951     950     952
     950     953     953     954     953     955     953     956
     956     957     956     958     956     959     959     960
     961     962     961     963     961     964     961     965
     965     966     965     975     966     967     966     968
     966     969     969     970     969     971     969     972
     972     973     972     974     972     975     975     976
     977     978     977     979     977     980     977     981
     981     982     981     991     982     983     982     984
     982     985     985     986     985     987     985     988
     988     989     988     990     988     991     991     992
     993     994     993     995     993     996     993     997
     997     998     997    1007     998     999     998    1000
     998    1001    1001    1002    1001    1003    1001    1004
    1004    1005    1004    1006    1004    1007    1007    1008
    1009    1010    1009    1011    1009    1012    1009    1013
    1013    1014    1013    1023    1014    1015    1014    1016
    1014    1017    1017    1018    1017    1019    1017    1020
    1020    1021    1020    1022    1020    1023    1023    1024
    1025    1026    1025    1027    1025    1028    1025    1029
    1029    1030    1029    1039    1030    1031    1030    1032
    1030    1033    1033    1034    1033    1035    1033    1036
    1036    1037    1036    1038    1036    1039    1039    1040
    1041    1042    1041    1043    1041    1044    1041    1045
    1045    1046    1045    1055    1046    1047    1046    1048
    1046    1049    1049    1050    1049    1051    1049    1052
    1052    1053    1052    1054    1052    1055    1055    1056
    1057    1058    1057    1059    1057    1060    1057    1061
    1061    1062    1061    1071    1062    1063    1062    1064
    1062    1065    1065    1066    1065    1067    1065    1068
    1068    1069    1068    1070    1068    1071    1071    1072
    1073    1074    1073    1075    1073    1076    1073    1077
    1077    1078    1077    1087    1078    1079    1078    1080
    1078    1081    1081    1082    1081    1083    1081    1084
    1084    1085    1084    1086    1084    1087    1087    1088
    1089    1090    1089    1091    1089    1092    1089    1093
    1093    1094    1093    1103    1094    1095    1094    1096
    1094    1097    1097    1098    1097    1099    1097    1100
    1100    1101    1100    1102    1100    1103    1103    1104
    1105    1106    1105    1107    1105    1108    1105    1109
    1109    1110    1109    1119    1110    1111    1110    1112
    1110    1113    1113    1114    1113    1115    1113    1116
    1116    1117    1116    1118    1116    1119    1119    1120
    1121    1122    1121    1123    1121    1124    1121    1125
    1125    1126    1125    1135    1126    1127    1126    1128
    1126    1129    1129    1130    1129    1131    1129    1132
    1132    1133    1132    1134    1132    1135    1135    1136
    1137    1138    1137    1139    1137    1140    1137    1141
    1141    1142    1141    1151    1142    1143    1142    1144
    1142    1145    1145    1146    1145    1147    1145    1148
    1148    1149    1148    1150    1148    1151    1151    1152
    1153    1154    1153    1155    1153    1156    1153    1157
    1157    1158    1157    1167    1158    1159    1158    1160
    1158    1161    1161    1162    1161    1163    1161    1164
    1164    1165    1164    1166    1164    1167    1167    1168
    1169    1170    1169    1171    1169    1172    1169    1173
    1173    1174    1173    1183    1174    1175    1174    1176
    1174    1177    1177    1178    1177    1179    1177    1180
    1180    1181    1180    1182    1180    1183    1183    1184
    1185    1186    1185    1187    1185    1188    1185    1189
    1189    1190    1189    1199    1190    1191    1190    1192
    1190    1193    1193    1194    1193    1195    1193    1196
    1196    1197    1196    1198    1196    1199    1199    1200
    1201    1202    1201    1203    1201    1204    1201    1205
    1205    1206    1205    1215    1206    1207    1206    1208
    1206    1209    1209    1210    1209    1211    1209    1212
    1212    1213    1212    1214    1212    1215    1215    1216
    1217    1218    1217    1219    1217    1220    1217    1221
    1221    1222    1221    1231    1222    1223    1222    1224
    1222    1225    1225    1226    1225    1227    1225    1228
    1228    1229    1228    1230    1228    1231    1231    1232
    1233    1234    1233    1235    1233    1236    1233    1237
    1237    1238    1237    1247    1238    1239    1238    1240
    1238    1241    1241    1242    1241    1243    1241    1244
    1244    1245    1244    1246    1244    1247    1247    1248
    1249    1250    1249    1251    1249    1252    1249    1253
    1253    1254    1253    1263    1254    1255    1254    1256
    1254    1257    1257    1258    1257    1259    1257    1260
    1260    1261    1260    1262    1260    1263    1263    1264
    1265    1266    1265    1267    1265    1268    1265    1269
    1269    1270    1269    1279    1270    1271    1270    1272
    1270    1273    1273    1274    1273    1275    1273    1276
    1276    1277    1276    1278    1276    1279    1279    1280
    1281    1282    1281    1283    1281    1284    1281    1285
    1285    1286    1285    1295    1286    1287    1286    1288
    1286    1289    1289    1290    1289    1291    1289    1292
    1292    1293    1292    1294    1292    1295    1295    1296
    1297    1298    1297    1299    1297    1300    1297    1301
    1301    1302    1301    1311    1302    1303    1302    1304
    1302    1305    1305    1306    1305    1307    1305    1308
    1308    1309    1308    1310    1308    1311    1311    1312
    1313    1314    1313    1315    1313    1316    1313    1317
    1317    1318    1317    1327    1318    1319    1318    1320
    1318    1321    1321    1322    1321    1323    1321    1324
    1324    1325    1324    1326    1324    1327    1327    1328
    1329    1330    1329    1331    1329    1332    1329    1333
    1333    1334    1333    1343    1334    1335    1334    1336
    1334    1337    1337    1338    1337    1339    1337    1340
    1340    1341    1340    1342    1340    1343    1343    1344
    1345    1346    1345    1347    1345    1348    1345    1349
    1349    1350    1349    1359    1350    1351    1350    1352
    1350    1353    1353    1354    1353    1355    1353    1356
    1356    1357    1356    1358    1356    1359    1359    1360
    1361    1362    1361    1363    1361    1364    1361    1365
    1365    1366    1365    1375    1366    1367    1366    1368
    1366    1369    1369    1370    1369    1371    1369    1372
    1372    1373    1372    1374    1372    1375    1375    1376
    1377    1378    1377    1379    1377    1380    1377    1381
    1381    1382    1381    1391    1382    1383    1382    1384
    1382    1385    1385    1386    1385    1387    1385    1388
    1388    1389    1388    1390    1388    1391    1391    1392
    1393    1394    1393    1395    1393    1396    1393    1397
    1397    1398    1397    1407    1398    1399    1398    1400
    1398    1401    1401    1402    1401    1403    1401    1404
    1404    1405    1404    1406    1404    1407    1407    1408
    1409    1410    1409    1411    1409    1412    1409    1413
    1413    1414    1413    1423    1414    1415    1414    1416
    1414    1417    1417    1418    1417    1419    1417    1420
    1420    1421    1420    1422    1420    1423    1423    1424
    1425    1426    1425    1427    1425    1428    1425    1429
    1429    1430    1429    1439    1430    1431    1430    1432
    1430    1433    1433    1434    1433    1435    1433    1436
    1436    1437    1436    1438    1436    1439    1439    1440
    1441    1442    1441    1443    1441    1444    1441    1445
    1445    1446    1445    1455    1446    1447    1446    1448
    1446    1449    1449    1450    1449    1451    1449    1452
    1452    1453    1452    1454    1452    1455    1455    1456
    1457    1458    1457    1459    1457    1460    1457    1461
    1461    1462    1461    1471    1462    1463    1462    1464
    1462    1465    1465    1466    1465    1467    1465    1468
    1468    1469    1468    1470    1468    1471    1471    1472
    1473    1474    1473    1475    1473    1476    1473    1477
    1477    1478    1477    1487    1478    1479    1478    1480
    1478    1481    1481    1482    1481    1483    1481    1484
    1484    1485    1484    1486    1484    1487    1487    1488
    1489    1490    1489    1491    1489    1492    1489    1493
    1493    1494    1493    1503    1494    1495    1494    1496
    1494    1497    1497    1498    1497    1499    1497    1500
    1500    1501    1500    1502    1500    1503    1503    1504
    1505    1506    1505    1507    1505    1508    1505    1509
    1509    1510    1509    1519    1510    1511    1510    1512
    1510    1513    1513    1514    1513    1515    1513    1516
    1516    1517    1516    1518    1516    1519    1519    1520
    1521    1522    1521    1523    1521    1524    1521    1525
    1525    1526    1525    1535    1526    1527    1526    1528
    1526    1529    1529    1530    1529    1531    1529    1532
    1532    1533    1532    1534    1532    1535    1535    1536
    1537    1538    1537    1539    1537    1540    1537    1541
    1541    1542    1541    1551    1542    1543    1542    1544
    1542    1545    1545    1546    1545    1547    1545    1548
    1548    1549    1548    1550    1548    1551    1551    1552
    1553    1554    1553    1555    1553    1556    1553    1557
    1557    1558    1557    1567    1558    1559    1558    1560
    1558    1561    1561    1562    1561    1563    1561    1564
    1564    1565    1564    1566    1564    1567    1567    1568
    1569    1570    1569    1571    1569    1572    1569    1573
    1573    1574    1573    1583    1574    1575    1574    1576
    1574    1577    1577    1578    1577    1579    1577    1580
    1580    1581    1580    1582    1580    1583    1583    1584
    1585    1586    1585    1587    1585    1588    1585    1589
    1589    1590    1589    1599    1590    1591    1590    1592
    1590    1593    1593    1594    1593    1595    1593    1596
    1596    1597    1596    1598    1596    1599    1599    1600
    1601    1602    1601    1603    1601    1604    1601    1605
    1605    1606    1605    1615    1606    1607    1606    1608
    1606    1609    1609    1610    1609    1611    1609    1612
    1612    1613    1612    1614    1612    1615    1615    1616
    1617    1618    1617    1619    1617    1620    1617    1621
    1621    1622    1621    1631    1622    1623    1622    1624
    1622    1625    1625    1626    1625    1627    1625    1628
    1628    1629    1628    1630    1628    1631    1631    1632
    1633    1634    1633    1635    1633    1636    1633    1637
    1637    1638    1637    1647    1638    1639    1638    1640
    1638    1641    1641    1642    1641    1643    1641    1644
    1644    1645    1644    1646    1644    1647    1647    1648
    1649    1650    1649    1651    1649    1652    1649    1653
    1653    1654    1653    1663    1654    1655    1654    1656
    1654    1657    1657    1658    1657    1659    1657    1660
    1660    1661    1660    1662    1660    1663    1663    1664
    1665    1666    1665    1667    1665    1668    1665    1669
    1669    1670    1669    1679    1670    1671    1670    1672
    1670    1673    1673    1674    1673    1675    1673    1676
    1676    1677    1676    1678    1676    1679    1679    1680
    1681    1682    1681    1683    1681    1684    1681    1685
    1685    1686    1685    1695    1686    1687    1686    1688
    1686    1689    1689    1690    1689    1691    1689    1692
    1692    1693    1692    1694    1692    1695    1695    1696
    1697    1698    1697    1699    1697    1700    1697    1701
    1701    1702    1701    1711    1702    1703    1702    1704
    1702    1705    1705    1706    1705    1707    1705    1708
    1708    1709    1708    1710    1708    1711    1711    1712
    1713    1714    1713    1715    1713    1716    1713    1717
    1717    1718    1717    1727    1718    1719    1718    1720
    1718    1721    1721    1722    1721    1723    1721    1724
    1724    1725    1724    1726    1724    1727    1727    1728
    1729    1730    1729    1731    1729    1732    1729    1733
    1733    1734    1733    1743    1734    1735    1734    1736
    1734    1737    1737    1738    1737    1739    1737    1740
    1740    1741    1740    1742    1740    1743    1743    1744
    1745    1746    1745    1747    1745    1748    1745    1749
    1749    1750    1749    1759    1750    1751    1750    1752
    1750    1753    1753    1754    1753    1755    1753    1756
    1756    1757    1756    1758    1756    1759    1759    1760
    1761    1762    1761    1763    1761    1764    1761    1765
    1765    1766    1765    1775    1766    1767    1766    1768
    1766    1769    1769    1770    1769    1771    1769    1772
    1772    1773    1772    1774    1772    1775    1775    1776
    1777    1778    1777    1779    1777    1780    1777    1781
    1781    1782    1781    1791    1782    1783    1782    1784
    1782    1785    1785    1786    1785    1787    1785    1788
    1788    1789    1788    1790    1788    1791    1791    1792
    1793    1794    1793    1795    1793    1796    1793    1797
    1797    1798    1797    1807    1798    1799    1798    1800
    1798    1801    1801    1802    1801    1803    1801    1804
    1804    1805    1804    1806    1804    1807    1807    1808
    1809    1810    1809    1811    1809    1812    1809    1813
    1813    1814    1813    1823    1814    1815    1814    1816
    1814    1817    1817    1818    1817    1819    1817    1820
    1820    1821    1820    1822    1820    1823    1823    1824
    1825    1826    1825    1827    1825    1828    1825    1829
    1829    1830    1829    1839    1830    1831    1830    1832
    1830    1833    1833    1834    1833    1835    1833    1836
    1836    1837    1836    1838    1836    1839    1839    1840
    1841    1842    1841    1843    1841    1844    1841    1845
    1845    1846    1845    1855    1846    1847    1846    1848
    1846    1849    1849    1850    1849    1851    1849    1852
    1852    1853    1852    1854    1852    1855    1855    1856
    1857    1858    1857    1859    1857    1860    1857    1861
    1861    1862    1861    1871    1862    1863    1862    1864
    1862    1865    1865    1866    1865    1867    1865    1868
    1868    1869    1868    1870    1868    1871    1871    1872
    1873    1874    1873    1875    1873    1876    1873    1877
    1877    1878    1877    1887    1878    1879    1878    1880
    1878    1881    1881    1882    1881    1883    1881    1884
    1884    1885    1884    1886    1884    1887    1887    1888
    1889    1890    1889    1891    1889    1892    1889    1893
    1893    1894    1893    1903    1894    1895    1894    1896
    1894    1897    1897    1898    1897    1899    1897    1900
    1900    1901    1900    1902    1900    1903    1903    1904
    1905    1906    1905    1907    1905    1908    1905    1909
    1909    1910    1909    1919    1910    1911    1910    1912
    1910    1913    1913    1914    1913    1915    1913    1916
    1916    1917    1916    1918    1916    1919    1919    1920
    1921    1922    1921    1923    1921    1924    1921    1925
    1925    1926    1925    1935    1926    1927    1926    1928
    1926    1929    1929    1930    1929    1931    1929    1932
    1932    1933    1932    1934    1932    1935    1935    1936
    1937    1938    1937    1939    1937    1940    1937    1941
    1941    1942    1941    1951    1942    1943    1942    1944
    1942    1945    1945    1946    1945    1947    1945    1948
    1948    1949    1948    1950    1948    1951    1951    1952
    1953    1954    1953    1955    1953    1956    1953    1957
    1957    1958    1957    1967    1958    1959    1958    1960
    1958    1961    1961    1962    1961    1963    1961    1964
    1964    1965    1964    1966    1964    1967    1967    1968
    1969    1970    1969    1971    1969    1972    1969    1973
    1973    1974    1973    1983    1974    1975    1974    1976
    1974    1977    1977    1978    1977    1979    1977    1980
    1980    1981    1980    1982    1980    1983    1983    1984
    1985    1986    1985    1987    1985    1988    1985    1989
    1989    1990    1989    1999    1990    1991    1990    1992
    1990    1993    1993    1994    1993    1995    1993    1996
    1996    1997    1996    1998    1996    1999    1999    2000
    2001    2002    2001    2003    2001    2004    2001    2005
    2005    2006    2005    2015    2006    2007    2006    2008
    2006    2009    2009    2010    2009    2011    2009    2012
    2012    2013    2012    2014    2012    2015    2015    2016
    2017    2018    2017    2019    2017    2020    2017    2021
    2021    2022    2021    2031    2022    2023    2022    2024
    2022    2025    2025    2026    2025    2027    2025    2028
    2028    2029    2028    2030    2028    2031    2031    2032
    2033    2034    2033    2035    2033    2036    2033    2037
    2037    2038    2037    2047    2038    2039    2038    2040
    2038    2041    2041    2042    2041    2043    2041    2044
    2044    2045    2044    2046    2044    2047    2047    2048
    2049    2050    2049    2051    2049    2052    2049    2053
    2053    2054    2053    2063    2054    2055    2054    2056
    2054    2057    2057    2058    2057    2059    2057    2060
    2060    2061    2060    2062    2060    2063    2063    2064
    2065    2066    2065    2067    2065    2068    2065    2069
    2069    2070    2069    2079    2070    2071    2070    2072
    2070    2073    2073    2074    2073    2075    2073    2076
    2076    2077    2076    2078    2076    2079    2079    2080
    2081    2082    2081    2083    2081    2084    2081    2085
    2085    2086    2085    2095    2086    2087    2086    2088
    2086    2089    2089    2090    2089    2091    2089    2092
    2092    2093    2092    2094    2092    2095    2095    2096
    2097    2098    2097    2099    2097    2100    2097    2101
    2101    2102    2101    2111    2102    2103    2102    2104
    2102    2105    2105    2106    2105    2107    2105    2108
    2108    2109    2108    2110    2108    2111    2111    2112
    2113    2114    2113    2115    2113    2116    2113    2117
    2117    2118    2117    2127    2118    2119    2118    2120
    2118    2121    2121    2122    2121    2123    2121    2124
    2124    2125    2124    2126    2124    2127    2127    2128
    2129    2130    2129    2131    2129    2132    2129    2133
    2133    2134    2133    2143    2134    2135    2134    2136
    2134    2137    2137    2138    2137    2139    2137    2140
    2140    2141    2140    2142    2140    2143    2143    2144
    2145    2146    2145    2147    2145    2148    2145    2149
    2149    2150    2149    2159    2150    2151    2150    2152
    2150    2153    2153    2154    2153    2155    2153    2156
    2156    2157    2156    2158    2156    2159    2159    2160
    2161    2162    2161    2163    2161    2164    2161    2165
    2165    2166    2165    2175    2166    2167    2166    2168
    2166    2169    2169    2170    2169    2171    2169    2172
    2172    2173    2172    2174    2172    2175    2175    2176
    2177    2178    2177    2179    2177    2180    2177    2181
    2181    2182    2181    2191    2182    2183    2182    2184
    2182    2185    2185    2186    2185    2187    2185    2188
    2188    2189    2188    2190    2188    2191    2191    2192
    2193    2194    2193    2195    2193    2196    2193    2197
    2197    2198    2197    2207    2198    2199    2198    2200
    2198    2201    2201    2202    2201    2203    2201    2204
    2204    2205    2204    2206    2204    2207    2207    2208
    2209    2210    2209    2211    2209    2212    2209    2213
    2213    2214    2213    2223    2214    2215    2214    2216
    2214    2217    2217    2218    2217    2219    2217    2220
    2220    2221    2220    2222    2220    2223    2223    2224
    2225    2226    2225    2227    2225    2228    2225    2229
    2229    2230    2229    2239    2230    2231    2230    2232
    2230    2233    2233    2234    2233    2235    2233    2236
    2236    2237    2236    2238    2236    2239    2239    2240
    2241    2242    2241    2243    2241    2244    2241    2245
    2245    2246    2245    2255    2246    2247    2246    2248
    2246    2249    2249    2250    2249    2251    2249    2252
    2252    2253    2252    2254    2252    2255    2255    2256
    2257    2258    2257    2259    2257    2260    2257    2261
    2261    2262    2261    2271    2262    2263    2262    2264
    2262    2265    2265    2266    2265    2267    2265    2268
    2268    2269    2268    2270    2268    2271    2271    2272
    2273    2274    2273    2275    2273    2276    2273    2277
    2277    2278    2277    2287    2278    2279    2278    2280
    2278    2281    2281    2282    2281    2283    2281    2284
    2284    2285    2284    2286    2284    2287    2287    2288
    2289    2290    2289    2291    2289    2292    2289    2293
    2293    2294    2293    2303    2294    2295    2294    2296
    2294    2297    2297    2298    2297    2299    2297    2300
    2300    2301    2300    2302    2300    2303    2303    2304
    2305    2306    2305    2307    2305    2308    2305    2309
    2309    2310    2309    2319    2310    2311    2310    2312
    2310    2313    2313    2314    2313    2315    2313    2316
    2316    2317    2316    2318    2316    2319    2319    2320
    2321    2322    2321    2323    2321    2324    2321    2325
    2325    2326    2325    2335    2326    2327    2326    2328
    2326    2329    2329    2330    2329    2331    2329    2332
    2332    2333    2332    2334    2332    2335    2335    2336
    2337    2338    2337    2339    2337    2340    2337    2341
    2341    2342    2341    2351    2342    2343    2342    2344
    2342    2345    2345    2346    2345    2347    2345    2348
    2348    2349    2348    2350    2348    2351    2351    2352
    2353    2354    2353    2355    2353    2356    2353    2357
    2357    2358    2357    2367    2358    2359    2358    2360
    2358    2361    2361    2362    2361    2363    2361    2364
    2364    2365    2364    2366    2364    2367    2367    2368
    2369    2370    2369    2371    2369    2372    2369    2373
    2373    2374    2373    2383    2374    2375    2374    2376
    2374    2377    2377    2378    2377    2379    2377    2380
    2380    2381    2380    2382    2380    2383    2383    2384
    2385    2386    2385    2387    2385    2388    2385    2389
    2389    2390    2389    2399    2390    2391    2390    2392
    2390    2393    2393    2394    2393    2395    2393    2396
    2396    2397    2396    2398    2396    2399    2399    2400
    2401    2402    2401    2403    2401    2404    2401    2405
    2405    2406    2405    2415    2406    2407    2406    2408
    2406    2409    2409    2410    2409    2411    2409    2412
    2412    2413    2412    2414    2412    2415    2415    2416
    2417    2418    2417    2419    2417    2420    2417    2421
    2421    2422    2421    2431    2422    2423    2422    2424
    2422    2425    2425    2426    2425    2427    2425    2428
    2428    2429    2428    2430    2428    2431    2431    2432
    2433    2434    2433    2435    2433    2436    2433    2437
    2437    2438    2437    2447    2438    2439    2438    2440
    2438    2441    2441    2442    2441    2443    2441    2444
    2444    2445    2444    2446    2444    2447    2447    2448
    2449    2450    2449    2451    2449    2452    2449    2453
    2453    2454    2453    2463    2454    2455    2454    2456
    2454    2457    2457    2458    2457    2459    2457    2460
    2460    2461    2460    2462    2460    2463    2463    2464
    2465    2466    2465    2467    2465    2468    2465    2469
    2469    2470    2469    2479    2470    2471    2470    2472
    2470    2473    2473    2474    2473    2475    2473    2476
    2476    2477    2476    2478    2476    2479    2479    2480
    2481    2482    2481    2483    2481    2484    2481    2485
    2485    2486    2485    2495    2486    2487    2486    2488
    2486    2489    2489    2490    2489    2491    2489    2492
    2492    2493    2492    2494    2492    2495    2495    2496
    2497    2498    2497    2499    2497    2500    2497    2501
    2501    2502    2501    2511    2502    2503    2502    2504
    2502    2505    2505    2506    2505    2507    2505    2508
    2508    2509    2508    2510    2508    2511    2511    2512
    2513    2514    2513    2515    2513    2516    2513    2517
    2517    2518    2517    2527    2518    2519    2518    2520
    2518    2521    2521    2522    2521    2523    2521    2524
    2524    2525    2524    2526    2524    2527    2527    2528
    2529    2530    2529    2531    2529    2532    2529    2533
    2533    2534    2533    2543    2534    2535    2534    2536
    2534    2537    2537    2538    2537    2539    2537    2540
    2540    2541    2540    2542    2540    2543    2543    2544
    2545    2546    2545    2547    2545    2548    2545    2549
    2549    2550    2549    2559    2550    2551    2550    2552
    2550    2553    2553    2554    2553    2555    2553    2556
    2556    2557    2556    2558    2556    2559    2559    2560
    2561    2562    2561    2563    2561    2564    2561    2565
    2565    2566    2565    2575    2566    2567    2566    2568
    2566    2569    2569    2570    2569    2571    2569    2572
    2572    2573    2572    2574    2572    2575    2575    2576
    2577    2578    2577    2579    2577    2580    2577    2581
    2581    2582    2581    2591    2582    2583    2582    2584
    2582    2585    2585    2586    2585    2587    2585    2588
    2588    2589    2588    2590    2588    2591    2591    2592
    2593    2594    2593    2595    2593    2596    2593    2597
    2597    2598    2597    2607    2598    2599    2598    2600
    2598    2601    2601    2602    2601    2603    2601    2604
    2604    2605    2604    2606    2604    2607    2607    2608
    2609    2610    2609    2611    2609    2612    2609    2613
    2613    2614    2613    2623    2614    2615    2614    2616
    2614    2617    2617    2618    2617    2619    2617    2620
    2620    2621    2620    2622    2620    2623    2623    2624
    2625    2626    2625    2627    2625    2628    2625    2629
    2629    2630    2629    2639    2630    2631    2630    2632
    2630    2633    2633    2634    2633    2635    2633    2636
    2636    2637    2636    2638    2636    2639    2639    2640
    2641    2642    2641    2643    2641    2644    2641    2645
    2645    2646    2645    2655    2646    2647    2646    2648
    2646    2649    2649    2650    2649    2651    2649    2652
    2652    2653    2652    2654    2652    2655    2655    2656
    2657    2658    2657    2659    2657    2660    2657    2661
    2661    2662    2661    2671    2662    2663    2662    2664
    2662    2665    2665    2666    2665    2667    2665    2668
    2668    2669    2668    2670    2668    2671    2671    2672
    2673    2674    2673    2675    2673    2676    2673    2677
    2677    2678    2677    2687    2678    2679    2678    2680
    2678    2681    2681    2682    2681    2683    2681    2684
    2684    2685    2684    2686    2684    2687    2687    2688
    2689    2690    2689    2691    2689    2692    2689    2693
    2693    2694    2693    2703    2694    2695    2694    2696
    2694    2697    2697    2698    2697    2699    2697    2700
    2700    2701    2700    2702    2700    2703    2703    2704
    2705    2706    2705    2707    2705    2708    2705    2709
    2709    2710    2709    2719    2710    2711    2710    2712
    2710    2713    2713    2714    2713    2715    2713    2716
    2716    2717    2716    2718    2716    2719    2719    2720
    2721    2722    2721    2723    2721    2724    2721    2725
    2725    2726    2725    2735    2726    2727    2726    2728
    2726    2729    2729    2730    2729    2731    2729    2732
    2732    2733    2732    2734    2732    2735    2735    2736
    2737    2738    2737    2739    2737    2740    2737    2741
    2741    2742    2741    2751    2742    2743    2742    2744
    2742    2745    2745    2746    2745    2747    2745    2748
    2748    2749    2748    2750    2748    2751    2751    2752
    2753    2754    2753    2755    2753    2756    2753    2757
    2757    2758    2757    2767    2758    2759    2758    2760
    2758    2761    2761    2762    2761    2763    2761    2764
    2764    2765    2764    2766    2764    2767    2767    2768
    2769    2770    2769    2771    2769    2772    2769    2773
    2773    2774    2773    2783    2774    2775    2774    2776
    2774    2777    2777    2778    2777    2779    2777    2780
    2780    2781    2780    2782    2780    2783    2783    2784
    2785    2786    2785    2787    2785    2788    2785    2789
    2789    2790    2789    2799    2790    2791    2790    2792
    2790    2793    2793    2794    2793    2795    2793    2796
    2796    2797    2796    2798    2796    2799    2799    2800
    2801    2802    2801    2803    2801    2804    2801    2805
    2805    2806    2805    2815    2806    2807    2806    2808
    2806    2809    2809    2810    2809    2811    2809    2812
    2812    2813    2812    2814    2812    2815    2815    2816
    2817    2818    2817    2819    2817    2820    2817    2821
    2821    2822    2821    2831    2822    2823    2822    2824
    2822    2825    2825    2826    2825    2827    2825    2828
    2828    2829    2828    2830    2828    2831    2831    2832
    2833    2834    2833    2835    2833    2836    2833    2837
    2837    2838    2837    2847    2838    2839    2838    2840
    2838    2841    2841    2842    2841    2843    2841    2844
    2844    2845    2844    2846    2844    2847    2847    2848
    2849    2850    2849    2851    2849    2852    2849    2853
    2853    2854    2853    2863    2854    2855    2854    2856
    2854    2857    2857    2858    2857    2859    2857    2860
    2860    2861    2860    2862    2860    2863    2863    2864
    2865    2866    2865    2867    2865    2868    2865    2869
    2869    2870    2869    2879    2870    2871    2870    2872
    2870    2873    2873    2874    2873    2875    2873    2876
    2876    2877    2876    2878    2876    2879    2879    2880
    2881    2882    2881    2883    2881    2884    2881    2885
    2885    2886    2885    2895    2886    2887    2886    2888
    2886    2889    2889    2890    2889    2891    2889    2892
    2892    2893    2892    2894    2892    2895    2895    2896
    2897    2898    2897    2899    2897    2900    2897    2901
    2901    2902    2901    2911    2902    2903    2902    2904
    2902    2905    2905    2906    2905    2907    2905    2908
    2908    2909    2908    2910    2908    2911    2911    2912
    2913    2914    2913    2915    2913    2916    2913    2917
    2917    2918    2917    2927    2918    2919    2918    2920
    2918    2921    2921    2922    2921    2923    2921    2924
    2924    2925    2924    2926    2924    2927    2927    2928
    2929    2930    2929    2931    2929    2932    2929    2933
    2933    2934    2933    2943    2934    2935    2934    2936
    2934    2937    2937    2938    2937    2939    2937    2940
    2940    2941    2940    2942    2940    2943    2943    2944
    2945    2946    2945    2947    2945    2948    2945    2949
    2949    2950    2949    2959    2950    2951    2950    2952
    2950    2953    2953    2954    2953    2955    2953    2956
    2956    2957    2956    2958    2956    2959    2959    2960
    2961    2962    2961    2963    2961    2964    2961    2965
    2965    2966    2965    2975    2966    2967    2966    2968
    2966    2969    2969    2970    2969    2971    2969    2972
    2972    2973    2972    2974    2972    2975    2975    2976
    2977    2978    2977    2979    2977    2980    2977    2981
    2981    2982    2981    2991    2982    2983    2982    2984
    2982    2985    2985    2986    2985    2987    2985    2988
    2988    2989    2988    2990    2988    2991    2991    2992
    2993    2994    2993    2995    2993    2996    2993    2997
    2997    2998    2997    3007    2998    2999    2998    3000
    2998    3001    3001    3002    3001    3003    3001    3004
    3004    3005    3004    3006    3004    3007    3007    3008
    3009    3010    3009    3011    3009    3012    3009    3013
    3013    3014    3013    3023    3014    3015    3014    3016
    3014    3017    3017    3018    3017    3019    3017    3020
    3020    3021    3020    3022    3020    3023    3023    3024
    3025    3026    3025    3027    3025    3028    3025    3029
    3029    3030    3029    3039    3030    3031    3030    3032
    3030    3033    3033    3034    3033    3035    3033    3036
    3036    3037    3036    3038    3036    3039    3039    3040
    3041    3042    3041    3043    3041    3044    3041    3045
    3045    3046    3045    3055    3046    3047    3046    3048
    3046    3049    3049    3050    3049    3051    3049    3052
    3052    3053    3052    3054    3052    3055    3055    3056
    3057    3058    3057    3059    3057    3060    3057    3061
    3061    3062    3061    3071    3062    3063    3062    3064
    3062    3065    3065    3066    3065    3067    3065    3068
    3068    3069    3068    3070    3068    3071    3071    3072
    3073    3074    3073    3075    3073    3076    3073    3077
    3077    3078    3077    3087    3078    3079    3078    3080
    3078    3081    3081    3082    3081    3083    3081    3084
    3084    3085    3084    3086    3084    3087    3087    3088
    3089    3090    3089    3091    3089    3092    3089    3093
    3093    3094    3093    3103    3094    3095    3094    3096
    3094    3097    3097    3098    3097    3099    3097    3100
    3100    3101    3100    3102    3100    3103    3103    3104
    3105    3106    3105    3107    3105    3108    3105    3109
    3109    3110    3109    3119    3110    3111    3110    3112
    3110    3113    3113    3114    3113    3115    3113    3116
    3116    3117    3116    3118    3116    3119    3119    3120
    3121    3122    3121    3123    3121    3124    3121    3125
    3125    3126    3125    3135    3126    3127    3126    3128
    3126    3129    3129    3130    3129    3131    3129    3132
    3132    3133    3132    3134    3132    3135    3135    3136
    3137    3138    3137    3139    3137    3140    3137    3141
    3141    3142    3141    3151    3142    3143    3142    3144
    3142    3145    3145    3146    3145    3147    3145    3148
    3148    3149    3148    3150    3148    3151    3151    3152
    3153    3154    3153    3155    3153    3156    3153    3157
    3157    3158    3157    3167    3158    3159    3158    3160
    3158    3161    3161    3162    3161    3163    3161    3164
    3164    3165    3164    3166    3164    3167    3167    3168
    3169    3170    3169    3171    3169    3172    3169    3173
    3173    3174    3173    3183    3174    3175    3174    3176
    3174    3177    3177    3178    3177    3179    3177    3180
    3180    3181    3180    3182    3180    3183    3183    3184
    3185    3186    3185    3187    3185    3188    3185    3189
    3189    3190    3189    3199    3190    3191    3190    3192
    3190    3193    3193    3194    3193    3195    3193    3196
    3196    3197    3196    3198    3196    3199    3199    3200
    3201    3202    3201    3203    3201    3204    3201    3205
    3205    3206    3205    3215    3206    3207    3206    3208
    3206    3209    3209    3210    3209    3211    3209    3212
    3212    3213    3212    3214    3212    3215    3215    3216
    3217    3218    3217    3219    3217    3220    3217    3221
    3221    3222    3221    3231    3222    3223    3222    3224
    3222    3225    3225    3226    3225    3227    3225    3228
    3228    3229    3228    3230    3228    3231    3231    3232
    3233    3234    3233    3235    3233    3236    3233    3237
    3237    3238    3237    3247    3238    3239    3238    3240
    3238    3241    3241    3242    3241    3243    3241    3244
    3244    3245    3244    3246    3244    3247    3247    3248
    3249    3250    3249    3251    3249    3252    3249    3253
    3253    3254    3253    3263    3254    3255    3254    3256
    3254    3257    3257    3258    3257    3259    3257    3260
    3260    3261    3260    3262    3260    3263    3263    3264
    3265    3266    3265    3267    3265    3268    3265    3269
    3269    3270    3269    3279    3270    3271    3270    3272
    3270    3273    3273    3274    3273    3275    3273    3276
    3276    3277    3276    3278    3276    3279    3279    3280
    3281    3282    3281    3283    3281    3284    3281    3285
    3285    3286    3285    3295    3286    3287    3286    3288
    3286    3289    3289    3290    3289    3291    3289    3292
    3292    3293    3292    3294    3292    3295    3295    3296
    3297    3298    3297    3299    3297    3300    3297    3301
    3301    3302    3301    3311    3302    3303    3302    3304
    3302    3305    3305    3306    3305    3307    3305    3308
    3308    3309    3308    3310    3308    3311    3311    3312
    3313    3314    3313    3315    3313    3316    3313    3317
    3317    3318    3317    3327    3318    3319    3318    3320
    3318    3321    3321    3322    3321    3323    3321    3324
    3324    3325    3324    3326    3324    3327    3327    3328
    3329    3330    3329    3331    3329    3332    3329    3333
    3333    3334    3333    3343    3334    3335    3334    3336
    3334    3337    3337    3338    3337    3339    3337    3340
    3340    3341    3340    3342    3340    3343    3343    3344
    3345    3346    3345    3347    3345    3348    3345    3349
    3349    3350    3349    3359    3350    3351    3350    3352
    3350    3353    3353    3354    3353    3355    3353    3356
    3356    3357    3356    3358    3356    3359    3359    3360
    3361    3362    3361    3363    3361    3364    3361    3365
    3365    3366    3365    3375    3366    3367    3366    3368
    3366    3369    3369    3370    3369    3371    3369    3372
    3372    3373    3372    3374    3372    3375    3375    3376
    3377    3378    3377    3379    3377    3380    3377    3381
    3381    3382    3381    3391    3382    3383    3382    3384
    3382    3385    3385    3386    3385    3387    3385    3388
    3388    3389    3388    3390    3388    3391    3391    3392
    3393    3394    3393    3395    3393    3396    3393    3397
    3397    3398    3397    3407    3398    3399    3398    3400
    3398    3401    3401    3402    3401    3403    3401    3404
    3404    3405    3404    3406    3404    3407    3407    3408
    3409    3410    3409    3411    3409    3412    3409    3413
    3413    3414    3413    3423    3414    3415    3414    3416
    3414    3417    3417    3418    3417    3419    3417    3420
    3420    3421    3420    3422    3420    3423    3423    3424
    3425    3426    3425    3427    3425    3428    3425    3429
    3429    3430    3429    3439    3430    3431    3430    3432
    3430    3433    3433    3434    3433    3435    3433    3436
    3436    3437    3436    3438    3436    3439    3439    3440
    3441    3442    3441    3443    3441    3444    3441    3445
    3445    3446    3445    3455    3446    3447    3446    3448
    3446    3449    3449    3450    3449    3451    3449    3452
    3452    3453    3452    3454    3452    3455    3455    3456
    3457    3458    3457    3459    3457    3460    3457    3461
    3461    3462    3461    3471    3462    3463    3462    3464
    3462    3465    3465    3466    3465    3467    3465    3468
    3468    3469    3468    3470    3468    3471    3471    3472
    3473    3474    3473    3475    3473    3476    3473    3477
    3477    3478    3477    3487    3478    3479    3478    3480
    3478    3481    3481    3482    3481    3483    3481    3484
    3484    3485    3484    3486    3484    3487    3487    3488
    3489    3490    3489    3491    3489    3492    3489    3493
    3493    3494    3493    3503    3494    3495    3494    3496
    3494    3497    3497    3498    3497    3499    3497    3500
    3500    3501    3500    3502    3500    3503    3503    3504
    3505    3506    3505    3507    3505    3508    3505    3509
    3509    3510    3509    3519    3510    3511    3510    3512
    3510    3513    3513    3514    3513    3515    3513    3516
    3516    3517    3516    3518    3516    3519    3519    3520
    3521    3522    3521    3523    3521    3524    3521    3525
    3525    3526    3525    3535    3526    3527    3526    3528
    3526    3529    3529    3530    3529    3531    3529    3532
    3532    3533    3532    3534    3532    3535    3535    3536
    3537    3538    3537    3539    3537    3540    3537    3541
    3541    3542    3541    3551    3542    3543    3542    3544
    3542    3545    3545    3546    3545    3547    3545    3548
    3548    3549    3548    3550    3548    3551    3551    3552
    3553    3554    3553    3555    3553    3556    3553    3557
    3557    3558    3557    3567    3558    3559    3558    3560
    3558    3561    3561    3562    3561    3563    3561    3564
    3564    3565    3564    3566    3564    3567    3567    3568
    3569    3570    3569    3571    3569    3572    3569    3573
    3573    3574    3573    3583    3574    3575    3574    3576
    3574    3577    3577    3578    3577    3579    3577    3580
    3580    3581    3580    3582    3580    3583    3583    3584
    3585    3586    3585    3587    3585    3588    3585    3589
    3589    3590    3589    3599    3590    3591    3590    3592
    3590    3593    3593    3594    3593    3595    3593    3596
    3596    3597    3596    3598    3596    3599    3599    3600
    3601    3602    3601    3603    3601    3604    3601    3605
    3605    3606    3605    3615    3606    3607    3606    3608
    3606    3609    3609    3610    3609    3611    3609    3612
    3612    3613    3612    3614    3612    3615    3615    3616
    3617    3618    3617    3619    3617    3620    3617    3621
    3621    3622    3621    3631    3622    3623    3622    3624
    3622    3625    3625    3626    3625    3627    3625    3628
    3628    3629    3628    3630    3628    3631    3631    3632
    3633    3634    3633    3635    3633    3636    3633    3637
    3637    3638    3637    3647    3638    3639    3638    3640
    3638    3641    3641    3642    3641    3643    3641    3644
    3644    3645    3644    3646    3644    3647    3647    3648
    3649    3650    3649    3651    3649    3652    3649    3653
    3653    3654    3653    3663    3654    3655    3654    3656
    3654    3657    3657    3658    3657    3659    3657    3660
    3660    3661    3660    3662    3660    3663    3663    3664
    3665    3666    3665    3667    3665    3668    3665    3669
    3669    3670    3669    3679    3670    3671    3670    3672
    3670    3673    3673    3674    3673    3675    3673    3676
    3676    3677    3676    3678    3676    3679    3679    3680
    3681    3682    3681    3683    3681    3684    3681    3685
    3685    3686    3685    3695    3686    3687    3686    3688
    3686    3689    3689    3690    3689    3691    3689    3692
    3692    3693    3692    3694    3692    3695    3695    3696
    3697    3698    3697    3699    3697    3700    3697    3701
    3701    3702    3701    3711    3702    3703    3702    3704
    3702    3705    3705    3706    3705    3707    3705    3708
    3708    3709    3708    3710    3708    3711    3711    3712
    3713    3714    3713    3715    3713    3716    3713    3717
    3717    3718    3717    3727    3718    3719    3718    3720
    3718    3721    3721    3722    3721    3723    3721    3724
    3724    3725    3724    3726    3724    3727    3727    3728
    3729    3730    3729    3731    3729    3732    3729    3733
    3733    3734    3733    3743    3734    3735    3734    3736
    3734    3737    3737    3738    3737    3739    3737    3740
    3740    3741    3740    3742    3740    3743    3743    3744
    3745    3746    3745    3747    3745    3748    3745    3749
    3749    3750    3749    3759    3750    3751    3750    3752
    3750    3753    3753    3754    3753    3755    3753    3756
    3756    3757    3756    3758    3756    3759    3759    3760
    3761    3762    3761    3763    3761    3764    3761    3765
    3765    3766    3765    3775    3766    3767    3766    3768
    3766    3769    3769    3770    3769    3771    3769    3772
    3772    3773    3772    3774    3772    3775    3775    3776
    3777    3778    3777    3779    3777    3780    3777    3781
    3781    3782    3781    3791    3782    3783    3782    3784
    3782    3785    3785    3786    3785    3787    3785    3788
    3788    3789    3788    3790    3788    3791    3791    3792
    3793    3794    3793    3795    3793    3796    3793    3797
    3797    3798    3797    3807    3798    3799    3798    3800
    3798    3801    3801    3802    3801    3803    3801    3804
    3804    3805    3804    3806    3804    3807    3807    3808
    3809    3810    3809    3811    3809    3812    3809    3813
    3813    3814    3813    3823    3814    3815    3814    3816
    3814    3817    3817    3818    3817    3819    3817    3820
    3820    3821    3820    3822    3820    3823    3823    3824
    3825    3826    3825    3827    3825    3828    3825    3829
    3829    3830    3829    3839    3830    3831    3830    3832
    3830    3833    3833    3834    3833    3835    3833    3836
    3836    3837    3836    3838    3836    3839    3839    3840
    3841    3842    3841    3843    3841    3844    3841    3845
    3845    3846    3845    3855    3846    3847    3846    3848
    3846    3849    3849    3850    3849    3851    3849    3852
    3852    3853    3852    3854    3852    3855    3855    3856
    3857    3858    3857    3859    3857    3860    3857    3861
    3861    3862    3861    3871    3862    3863    3862    3864
    3862    3865    3865    3866    3865    3867    3865    3868
    3868    3869    3868    3870    3868    3871    3871    3872
    3873    3874    3873    3875    3873    3876    3873    3877
    3877    3878    3877    3887    3878    3879    3878    3880
    3878    3881    3881    3882    3881    3883    3881    3884
    3884    3885    3884    3886    3884    3887    3887    3888
    3889    3890    3889    3891    3889    3892    3889    3893
    3893    3894    3893    3903    3894    3895    3894    3896
    3894    3897    3897    3898    3897    3899    3897    3900
    3900    3901    3900    3902    3900    3903    3903    3904
    3905    3906    3905    3907    3905    3908    3905    3909
    3909    3910    3909    3919    3910    3911    3910    3912
    3910    3913    3913    3914    3913    3915    3913    3916
    3916    3917    3916    3918    3916    3919    3919    3920
    3921    3922    3921    3923    3921    3924    3921    3925
    3925    3926    3925    3935    3926    3927    3926    3928
    3926    3929    3929    3930    3929    3931    3929    3932
    3932    3933    3932    3934    3932    3935    3935    3936
    3937    3938    3937    3939    3937    3940    3937    3941
    3941    3942    3941    3951    3942    3943    3942    3944
    3942    3945    3945    3946    3945    3947    3945    3948
    3948    3949    3948    3950    3948    3951    3951    3952
    3953    3954    3953    3955    3953    3956    3953    3957
    3957    3958    3957    3967    3958    3959    3958    3960
    3958    3961    3961    3962    3961    3963    3961    3964
    3964    3965    3964    3966    3964    3967    3967    3968
    3969    3970    3969    3971    3969    3972    3969    3973
    3973    3974    3973    3983    3974    3975    3974    3976
    3974    3977    3977    3978    3977    3979    3977    3980
    3980    3981    3980    3982    3980    3983    3983    3984
    3985    3986    3985    3987    3985    3988    3985    3989
    3989    3990    3989    3999    3990    3991    3990    3992
    3990    3993    3993    3994    3993    3995    3993    3996
    3996    3997    3996    3998    3996    3999    3999    4000
    4001    4002    4001    4003    4001    4004    4001    4005
    4005    4006    4005    4015    4006    4007    4006    4008
    4006    4009    4009    4010    4009    4011    4009    4012
    4012    4013    4012    4014    4012    4015    4015    4016
    4017    4018    4017    4019    4017    4020    4017    4021
    4021    4022    4021    4031    4022    4023    4022    4024
    4022    4025    4025    4026    4025    4027    4025    4028
    4028    4029    4028    4030    4028    4031    4031    4032
    4033    4034    4033    4035    4033    4036    4033    4037
    4037    4038    4037    4047    4038    4039    4038    4040
    4038    4041    4041    4042    4041    4043    4041    4044
    4044    4045    4044    4046    4044    4047    4047    4048
    4049    4050    4049    4051    4049    4052    4049    4053
    4053    4054    4053    4063    4054    4055    4054    4056
    4054    4057    4057    4058    4057    4059    4057    4060
    4060    4061    4060    4062    4060    4063    4063    4064
    4065    4066    4065    4067    4065    4068    4065    4069
    4069    4070    4069    4079    4070    4071    4070    4072
    4070    4073    4073    4074    4073    4075    4073    4076
    4076    4077    4076    4078    4076    4079    4079    4080
    4081    4082    4081    4083    4081    4084    4081    4085
    4085    4086    4085    4095    4086    4087    4086    4088
    4086    4089    4089    4090    4089    4091    4089    4092
    4092    4093    4092    4094    4092    4095    4095    4096
    4097    4098    4097    4099    4097    4100    4097    4101
    4101    4102    4101    4111    4102    4103    4102    4104
    4102    4105    4105    4106    4105    4107    4105    4108
    4108    4109    4108    4110    4108    4111    4111    4112
    4113    4114    4113    4115    4113    4116    4113    4117
    4117    4118    4117    4127    4118    4119    4118    4120
    4118    4121    4121    4122    4121    4123    4121    4124
    4124    4125    4124    4126    4124    4127    4127    4128
    4129    4130    4129    4131    4129    4132    4129    4133
    4133    4134    4133    4143    4134    4135    4134    4136
    4134    4137    4137    4138    4137    4139    4137    4140
    4140    4141    4140    4142    4140    4143    4143    4144
    4145    4146    4145    4147    4145    4148    4145    4149
    4149    4150    4149    4159    4150    4151    4150    4152
    4150    4153    4153    4154    4153    4155    4153    4156
    4156    4157    4156    4158    4156    4159    4159    4160
    4161    4162    4161    4163    4161    4164    4161    4165
    4165    4166    4165    4175    4166    4167    4166    4168
    4166    4169    4169    4170    4169    4171    4169    4172
    4172    4173    4172    4174    4172    4175    4175    4176
    4177    4178    4177    4179    4177    4180    4177    4181
    4181    4182    4181    4191    4182    4183    4182    4184
    4182    4185    4185    4186    4185    4187    4185    4188
    4188    4189    4188    4190    4188    4191    4191    4192
    4193    4194    4193    4195    4193    4196    4193    4197
    4197    4198    4197    4207    4198    4199    4198    4200
    4198    4201    4201    4202    4201    4203    4201    4204
    4204    4205    4204    4206    4204    4207    4207    4208
    4209    4210    4209    4211    4209    4212    4209    4213
    4213    4214    4213    4223    4214    4215    4214    4216
    4214    4217    4217    4218    4217    4219    4217    4220
    4220    4221    4220    4222    4220    4223    4223    4224
    4225    4226    4225    4227    4225    4228    4225    4229
    4229    4230    4229    4239    4230    4231    4230    4232
    4230    4233    4233    4234    4233    4235    4233    4236
    4236    4237    4236    4238    4236    4239    4239    4240
    4241    4242    4241    4243    4241    4244    4241    4245
    4245    4246    4245    4255    4246    4247    4246    4248
    4246    4249    4249    4250    4249    4251    4249    4252
    4252    4253    4252    4254    4252    4255    4255    4256
    4257    4258    4257    4259    4257    4260    4257    4261
    4261    4262    4261    4271    4262    4263    4262    4264
    4262    4265    4265    4266    4265    4267    4265    4268
    4268    4269    4268    4270    4268    4271    4271    4272
    4273    4274    4273    4275    4273    4276    4273    4277
    4277    4278    4277    4287    4278    4279    4278    4280
    4278    4281    4281    4282    4281    4283    4281    4284
    4284    4285    4284    4286    4284    4287    4287    4288
    4289    4290    4289    4291    4289    4292    4289    4293
    4293    4294    4293    4303    4294    4295    4294    4296
    4294    4297    4297    4298    4297    4299    4297    4300
    4300    4301    4300    4302    4300    4303    4303    4304
    4305    4306    4305    4307    4305    4308    4305    4309
    4309    4310    4309    4319    4310    4311    4310    4312
    4310    4313    4313    4314    4313    4315    4313    4316
    4316    4317    4316    4318    4316    4319    4319    4320
    4321    4322    4321    4323    4321    4324    4321    4325
    4325    4326    4325    4335    4326    4327    4326    4328
    4326    4329    4329    4330    4329    4331    4329    4332
    4332    4333    4332    4334    4332    4335    4335    4336
    4337    4338    4337    4339    4337    4340    4337    4341
    4341    4342    4341    4351    4342    4343    4342    4344
    4342    4345    4345    4346    4345    4347    4345    4348
    4348    4349    4348    4350    4348    4351    4351    4352
    4353    4354    4353    4355    4353    4356    4353    4357
    4357    4358    4357    4367    4358    4359    4358    4360
    4358    4361    4361    4362    4361    4363    4361    4364
    4364    4365    4364    4366    4364    4367    4367    4368
    4369    4370    4369    4371    4369    4372    4369    4373
    4373    4374    4373    4383    4374    4375    4374    4376
    4374    4377    4377    4378    4377    4379    4377    4380
    4380    4381    4380    4382    4380    4383    4383    4384
    4385    4386    4385    4387    4385    4388    4385    4389
    4389    4390    4389    4399    4390    4391    4390    4392
    4390    4393    4393    4394    4393    4395    4393    4396
    4396    4397    4396    4398    4396    4399    4399    4400
    4401    4402    4401    4403    4401    4404    4401    4405
    4405    4406    4405    4415    4406    4407    4406    4408
    4406    4409    4409    4410    4409    4411    4409    4412
    4412    4413    4412    4414    4412    4415    4415    4416
    4417    4418    4417    4419    4417    4420    4417    4421
    4421    4422    4421    4431    4422    4423    4422    4424
    4422    4425    4425    4426    4425    4427    4425    4428
    4428    4429    4428    4430    4428    4431    4431    4432
    4433    4434    4433    4435    4433    4436    4433    4437
    4437    4438    4437    4447    4438    4439    4438    4440
    4438    4441    4441    4442    4441    4443    4441    4444
    4444    4445    4444    4446    4444    4447    4447    4448
    4449    4450    4449    4451    4449    4452    4449    4453
    4453    4454    4453    4463    4454    4455    4454    4456
    4454    4457    4457    4458    4457    4459    4457    4460
    4460    4461    4460    4462    4460    4463    4463    4464
    4465    4466    4465    4467    4465    4468    4465    4469
    4469    4470    4469    4479    4470    4471    4470    4472
    4470    4473    4473    4474    4473    4475    4473    4476
    4476    4477    4476    4478    4476    4479    4479    4480
    4481    4482    4481    4483    4481    4484    4481    4485
    4485    4486    4485    4495    4486    4487    4486    4488
    4486    4489    4489    4490    4489    4491    4489    4492
    4492    4493    4492    4494    4492    4495    4495    4496
    4497    4498    4497    4499    4497    4500    4497    4501
    4501    4502    4501    4511    4502    4503    4502    4504
    4502    4505    4505    4506    4505    4507    4505    4508
    4508    4509    4508    4510    4508    4511    4511    4512
    4513    4514    4513    4515    4513    4516    4513    4517
    4517    4518    4517    4527    4518    4519    4518    4520
    4518    4521    4521    4522    4521    4523    4521    4524
    4524    4525    4524    4526    4524    4527    4527    4528
    4529    4530    4529    4531    4529    4532    4529    4533
    4533    4534    4533    4543    4534    4535    4534    4536
    4534    4537    4537    4538    4537    4539    4537    4540
    4540    4541    4540    4542    4540    4543    4543    4544
    4545    4546    4545    4547    4545    4548    4545    4549
    4549    4550    4549    4559    4550    4551    4550    4552
    4550    4553    4553    4554    4553    4555    4553    4556
    4556    4557    4556    4558    4556    4559    4559    4560
    4561    4562    4561    4563    4561    4564    4561    4565
    4565    4566    4565    4575    4566    4567    4566    4568
    4566    4569    4569    4570    4569    4571    4569    4572
    4572    4573    4572    4574    4572    4575    4575    4576
    4577    4578    4577    4579    4577    4580    4577    4581
    4581    4582    4581    4591    4582    4583    4582    4584
    4582    4585    4585    4586    4585    4587    4585    4588
    4588    4589    4588    4590    4588    4591    4591    4592
    4593    4594    4593    4595    4593    4596    4593    4597
    4597    4598    4597    4607    4598    4599    4598    4600
    4598    4601    4601    4602    4601    4603    4601    4604
    4604    4605    4604    4606    4604    4607    4607    4608
    4609    4610    4609    4611    4609    4612    4609    4613
    4613    4614    4613    4623    4614    4615    4614    4616
    4614    4617    4617    4618    4617    4619    4617    4620
    4620    4621    4620    4622    4620    4623    4623    4624
    4625    4626    4625    4627    4625    4628    4625    4629
    4629    4630    4629    4639    4630    4631    4630    4632
    4630    4633    4633    4634    4633    4635    4633    4636
    4636    4637    4636    4638    4636    4639    4639    4640
    4641    4642    4641    4643    4641    4644    4641    4645
    4645    4646    4645    4655    4646    4647    4646    4648
    4646    4649    4649    4650    4649    4651    4649    4652
    4652    4653    4652    4654    4652    4655    4655    4656
    4657    4658    4657    4659    4657    4660    4657    4661
    4661    4662    4661    4671    4662    4663    4662    4664
    4662    4665    4665    4666    4665    4667    4665    4668
    4668    4669    4668    4670    4668    4671    4671    4672
    4673    4674    4673    4675    4673    4676    4673    4677
    4677    4678    4677    4687    4678    4679    4678    4680
    4678    4681    4681    4682    4681    4683    4681    4684
    4684    4685    4684    4686    4684    4687    4687    4688
    4689    4690    4689    4691    4689    4692    4689    4693
    4693    4694    4693    4703    4694    4695    4694    4696
    4694    4697    4697    4698    4697    4699    4697    4700
    4700    4701    4700    4702    4700    4703    4703    4704
    4705    4706    4705    4707    4705    4708    4705    4709
    4709    4710    4709    4719    4710    4711    4710    4712
    4710    4713    4713    4714    4713    4715    4713    4716
    4716    4717    4716    4718    4716    4719    4719    4720
    4721    4722    4721    4723    4721    4724    4721    4725
    4725    4726    4725    4735    4726    4727    4726    4728
    4726    4729    4729    4730    4729    4731    4729    4732
    4732    4733    4732    4734    4732    4735    4735    4736
    4737    4738    4737    4739    4737    4740    4737    4741
    4741    4742    4741    4751    4742    4743    4742    4744
    4742    4745    4745    4746    4745    4747    4745    4748
    4748    4749    4748    4750    4748    4751    4751    4752
    4753    4754    4753    4755    4753    4756    4753    4757
    4757    4758    4757    4767    4758    4759    4758    4760
    4758    4761    4761    4762    4761    4763    4761    4764
    4764    4765    4764    4766    4764    4767    4767    4768
    4769    4770    4769    4771    4769    4772    4769    4773
    4773    4774    4773    4783    4774    4775    4774    4776
    4774    4777    4777    4778    4777    4779    4777    4780
    4780    4781    4780    4782    4780    4783    4783    4784
    4785    4786    4785    4787    4785    4788    4785    4789
    4789    4790    4789    4799    4790    4791    4790    4792
    4790    4793    4793    4794    4793    4795    4793    4796
    4796    4797    4796    4798    4796    4799    4799    4800
    4801    4802    4801    4803    4801    4804    4801    4805
    4805    4806    4805    4815    4806    4807    4806    4808
    4806    4809    4809    4810    4809    4811    4809    4812
    4812    4813    4812    4814    4812    4815    4815    4816
    4817    4818    4817    4819    4817    4820    4817    4821
    4821    4822    4821    4831    4822    4823    4822    4824
    4822    4825    4825    4826    4825    4827    4825    4828
    4828    4829    4828    4830    4828    4831    4831    4832
    4833    4834    4833    4835    4833    4836    4833    4837
    4837    4838    4837    4847    4838    4839    4838    4840
    4838    4841    4841    4842    4841    4843    4841    4844
    4844    4845    4844    4846    4844    4847    4847    4848
    4849    4850    4849    4851    4849    4852    4849    4853
    4853    4854    4853    4863    4854    4855    4854    4856
    4854    4857    4857    4858    4857    4859    4857    4860
    4860    4861    4860    4862    4860    4863    4863    4864
    4865    4866    4865    4867    4865    4868    4865    4869
    4869    4870    4869    4879    4870    4871    4870    4872
    4870    4873    4873    4874    4873    4875    4873    4876
    4876    4877    4876    4878    4876    4879    4879    4880
    4881    4882    4881    4883    4881    4884    4881    4885
    4885    4886    4885    4895    4886    4887    4886    4888
    4886    4889    4889    4890    4889    4891    4889    4892
    4892    4893    4892    4894    4892    4895    4895    4896
    4897    4898    4897    4899    4897    4900    4897    4901
    4901    4902    4901    4911    4902    4903    4902    4904
    4902    4905    4905    4906    4905    4907    4905    4908
    4908    4909    4908    4910    4908    4911    4911    4912
    4913    4914    4913    4915    4913    4916    4913    4917
    4917    4918    4917    4927    4918    4919    4918    4920
    4918    4921    4921    4922    4921    4923    4921    4924
    4924    4925    4924    4926    4924    4927    4927    4928
    4929    4930    4929    4931    4929    4932    4929    4933
    4933    4934    4933    4943    4934    4935    4934    4936
    4934    4937    4937    4938    4937    4939    4937    4940
    4940    4941    4940    4942    4940    4943    4943    4944
    4945    4946    4945    4947    4945    4948    4945    4949
    4949    4950    4949    4959    4950    4951    4950    4952
    4950    4953    4953    4954    4953    4955    4953    4956
    4956    4957    4956    4958    4956    4959    4959    4960
    4961    4962    4961    4963    4961    4964    4961    4965
    4965    4966    4965    4975    4966    4967    4966    4968
    4966    4969    4969    4970    4969    4971    4969    4972
    4972    4973    4972    4974    4972    4975    4975    4976
    4977    4978    4977    4979    4977    4980    4977    4981
    4981    4982    4981    4991    4982    4983    4982    4984
    4982    4985    4985    4986    4985    4987    4985    4988
    4988    4989    4988    4990    4988    4991    4991    4992
    4993    4994    4993    4995    4993    4996    4993    4997
    4997    4998    4997    5007    4998    4999    4998    5000
    4998    5001    5001    5002    5001    5003    5001    5004
    5004    5005    5004    5006    5004    5007    5007    5008
    5009    5010    5009    5011    5009    5012    5009    5013
    5013    5014    5013    5023    5014    5015    5014    5016
    5014    5017    5017    5018    5017    5019    5017    5020
    5020    5021    5020    5022    5020    5023    5023    5024
    5025    5026    5025    5027    5025    5028    5025    5029
    5029    5030    5029    5039    5030    5031    5030    5032
    5030    5033    5033    5034    5033    5035    5033    5036
    5036    5037    5036    5038    5036    5039    5039    5040
    5041    5042    5041    5043    5041    5044    5041    5045
    5045    5046    5045    5055    5046    5047    5046    5048
    5046    5049    5049    5050    5049    5051    5049    5052
    5052    5053    5052    5054    5052    5055    5055    5056
    5057    5058    5057    5059    5057    5060    5057    5061
    5061    5062    5061    5071    5062    5063    5062    5064
    5062    5065    5065    5066    5065    5067    5065    5068
    5068    5069    5068    5070    5068    5071    5071    5072
    5073    5074    5073    5075    5073    5076    5073    5077
    5077    5078    5077    5087    5078    5079    5078    5080
    5078    5081    5081    5082    5081    5083    5081    5084
    5084    5085    5084    5086    5084    5087    5087    5088
    5089    5090    5089    5091    5089    5092    5089    5093
    5093    5094    5093    5103    5094    5095    5094    5096
    5094    5097    5097    5098    5097    5099    5097    5100
    5100    5101    5100    5102    5100    5103    5103    5104
    5105    5106    5105    5107    5105    5108    5105    5109
    5109    5110    5109    5119    5110    5111    5110    5112
    5110    5113    5113    5114    5113    5115    5113    5116
    5116    5117    5116    5118    5116    5119    5119    5120
    5121    5122    5121    5123    5121    5124    5121    5125
    5125    5126    5125    5135    5126    5127    5126    5128
    5126    5129    5129    5130    5129    5131    5129    5132
    5132    5133    5132    5134    5132    5135    5135    5136
    5137    5138    5137    5139    5137    5140    5137    5141
    5141    5142    5141    5151    5142    5143    5142    5144
    5142    5145    5145    5146    5145    5147    5145    5148
    5148    5149    5148    5150    5148    5151    5151    5152
    5153    5154    5153    5155    5153    5156    5153    5157
    5157    5158    5157    5167    5158    5159    5158    5160
    5158    5161    5161    5162    5161    5163    5161    5164
    5164    5165    5164    5166    5164    5167    5167    5168
    5169    5170    5169    5171    5169    5172    5169    5173
    5173    5174    5173    5183    5174    5175    5174    5176
    5174    5177    5177    5178    5177    5179    5177    5180
    5180    5181    5180    5182    5180    5183    5183    5184
    5185    5186    5185    5187    5185    5188    5185    5189
    5189    5190    5189    5199    5190    5191    5190    5192
    5190    5193    5193    5194    5193    5195    5193    5196
    5196    5197    5196    5198    5196    5199    5199    5200
    5201    5202    5201    5203    5201    5204    5201    5205
    5205    5206    5205    5215    5206    5207    5206    5208
    5206    5209    5209    5210    5209    5211    5209    5212
    5212    5213    5212    5214    5212    5215    5215    5216
    5217    5218    5217    5219    5217    5220    5217    5221
    5221    5222    5221    5231    5222    5223    5222    5224
    5222    5225    5225    5226    5225    5227    5225    5228
    5228    5229    5228    5230    5228    5231    5231    5232
    5233    5234    5233    5235    5233    5236    5233    5237
    5237    5238    5237    5247    5238    5239    5238    5240
    5238    5241    5241    5242    5241    5243    5241    5244
    5244    5245    5244    5246    5244    5247    5247    5248
    5249    5250    5249    5251    5249    5252    5249    5253
    5253    5254    5253    5263    5254    5255    5254    5256
    5254    5257    5257    5258    5257    5259    5257    5260
    5260    5261    5260    5262    5260    5263    5263    5264
    5265    5266    5265    5267    5265    5268    5265    5269
    5269    5270    5269    5279    5270    5271    5270    5272
    5270    5273    5273    5274    5273    5275    5273    5276
    5276    5277    5276    5278    5276    5279    5279    5280
    5281    5282    5281    5283    5281    5284    5281    5285
    5285    5286    5285    5295    5286    5287    5286    5288
    5286    5289    5289    5290    5289    5291    5289    5292
    5292    5293    5292    5294    5292    5295    5295    5296
    5297    5298    5297    5299    5297    5300    5297    5301
    5301    5302    5301    5311    5302    5303    5302    5304
    5302    5305    5305    5306    5305    5307    5305    5308
    5308    5309    5308    5310    5308    5311    5311    5312
    5313    5314    5313    5315    5313    5316    5313    5317
    5317    5318    5317    5327    5318    5319    5318    5320
    5318    5321    5321    5322    5321    5323    5321    5324
    5324    5325    5324    5326    5324    5327    5327    5328
    5329    5330    5329    5331    5329    5332    5329    5333
    5333    5334    5333    5343    5334    5335    5334    5336
    5334    5337    5337    5338    5337    5339    5337    5340
    5340    5341    5340    5342    5340    5343    5343    5344
    5345    5346    5345    5347    5345    5348    5345    5349
    5349    5350    5349    5359    5350    5351    5350    5352
    5350    5353    5353    5354    5353    5355    5353    5356
    5356    5357    5356    5358    5356    5359    5359    5360
    5361    5362    5361    5363    5361    5364    5361    5365
    5365    5366    5365    5375    5366    5367    5366    5368
    5366    5369    5369    5370    5369    5371    5369    5372
    5372    5373    5372    5374    5372    5375    5375    5376
    5377    5378    5377    5379    5377    5380    5377    5381
    5381    5382    5381    5391    5382    5383    5382    5384
    5382    5385    5385    5386    5385    5387    5385    5388
    5388    5389    5388    5390    5388    5391    5391    5392
    5393    5394    5393    5395    5393    5396    5393    5397
    5397    5398    5397    5407    5398    5399    5398    5400
    5398    5401    5401    5402    5401    5403    5401    5404
    5404    5405    5404    5406    5404    5407    5407    5408
    5409    5410    5409    5411    5409    5412    5409    5413
    5413    5414    5413    5423    5414    5415    5414    5416
    5414    5417    5417    5418    5417    5419    5417    5420
    5420    5421    5420    5422    5420    5423    5423    5424
    5425    5426    5425    5427    5425    5428    5425    5429
    5429    5430    5429    5439    5430    5431    5430    5432
    5430    5433    5433    5434    5433    5435    5433    5436
    5436    5437    5436    5438    5436    5439    5439    5440
    5441    5442    5441    5443    5441    5444    5441    5445
    5445    5446    5445    5455    5446    5447    5446    5448
    5446    5449    5449    5450    5449    5451    5449    5452
    5452    5453    5452    5454    5452    5455    5455    5456
    5457    5458    5457    5459    5457    5460    5457    5461
    5461    5462    5461    5471    5462    5463    5462    5464
    5462    5465    5465    5466    5465    5467    5465    5468
    5468    5469    5468    5470    5468    5471    5471    5472
    5473    5474    5473    5475    5473    5476    5473    5477
    5477    5478    5477    5487    5478    5479    5478    5480
    5478    5481    5481    5482    5481    5483    5481    5484
    5484    5485    5484    5486    5484    5487    5487    5488
    5489    5490    5489    5491    5489    5492    5489    5493
    5493    5494    5493    5503    5494    5495    5494    5496
    5494    5497    5497    5498    5497    5499    5497    5500
    5500    5501    5500    5502    5500    5503    5503    5504
    5505    5506    5505    5507    5505    5508    5505    5509
    5509    5510    5509    5519    5510    5511    5510    5512
    5510    5513    5513    5514    5513    5515    5513    5516
    5516    5517    5516    5518    5516    5519    5519    5520
    5521    5522    5521    5523    5521    5524    5521    5525
    5525    5526    5525    5535    5526    5527    5526    5528
    5526    5529    5529    5530    5529    5531    5529    5532
    5532    5533    5532    5534    5532    5535    5535    5536
    5537    5538    5537    5539    5537    5540    5537    5541
    5541    5542    5541    5551    5542    5543    5542    5544
    5542    5545    5545    5546    5545    5547    5545    5548
    5548    5549    5548    5550    5548    5551    5551    5552
    5553    5554    5553    5555    5553    5556    5553    5557
    5557    5558    5557    5567    5558    5559    5558    5560
    5558    5561    5561    5562    5561    5563    5561    5564
    5564    5565    5564    5566    5564    5567    5567    5568
    5569    5570    5569    5571    5569    5572    5569    5573
    5573    5574    5573    5583    5574    5575    5574    5576
    5574    5577    5577    5578    5577    5579    5577    5580
    5580    5581    5580    5582    5580    5583    5583    5584
    5585    5586    5585    5587    5585    5588    5585    5589
    5589    5590    5589    5599    5590    5591    5590    5592
    5590    5593    5593    5594    5593    5595    5593    5596
    5596    5597    5596    5598    5596    5599    5599    5600
    5601    5602    5601    5603    5601    5604    5601    5605
    5605    5606    5605    5615    5606    5607    5606    5608
    5606    5609    5609    5610    5609    5611    5609    5612
    5612    5613    5612    5614    5612    5615    5615    5616
    5617    5618    5617    5619    5617    5620    5617    5621
    5621    5622    5621    5631    5622    5623    5622    5624
    5622    5625    5625    5626    5625    5627    5625    5628
    5628    5629    5628    5630    5628    5631    5631    5632
    5633    5634    5633    5635    5633    5636    5633    5637
    5637    5638    5637    5647    5638    5639    5638    5640
    5638    5641    5641    5642    5641    5643    5641    5644
    5644    5645    5644    5646    5644    5647    5647    5648
    5649    5650    5649    5651    5649    5652    5649    5653
    5653    5654    5653    5663    5654    5655    5654    5656
    5654    5657    5657    5658    5657    5659    5657    5660
    5660    5661    5660    5662    5660    5663    5663    5664
    5665    5666    5665    5667    5665    5668    5665    5669
    5669    5670    5669    5679    5670    5671    5670    5672
    5670    5673    5673    5674    5673    5675    5673    5676
    5676    5677    5676    5678    5676    5679    5679    5680
    5681    5682    5681    5683    5681    5684    5681    5685
    5685    5686    5685    5695    5686    5687    5686    5688
    5686    5689    5689    5690    5689    5691    5689    5692
    5692    5693    5692    5694    5692    5695    5695    5696
    5697    5698    5697    5699    5697    5700    5697    5701
    5701    5702    5701    5711    5702    5703    5702    5704
    5702    5705    5705    5706    5705    5707    5705    5708
    5708    5709    5708    5710    5708    5711    5711    5712
    5713    5714    5713    5715    5713    5716    5713    5717
    5717    5718    5717    5727    5718    5719    5718    5720
    5718    5721    5721    5722    5721    5723    5721    5724
    5724    5725    5724    5726    5724    5727    5727    5728
    5729    5730    5729    5731    5729    5732    5729    5733
    5733    5734    5733    5743    5734    5735    5734    5736
    5734    5737    5737    5738    5737    5739    5737    5740
    5740    5741    5740    5742    5740    5743    5743    5744
    5745    5746    5745    5747    5745    5748    5745    5749
    5749    5750    5749    5759    5750    5751    5750    5752
    5750    5753    5753    5754    5753    5755    5753    5756
    5756    5757    5756    5758    5756    5759    5759    5760
    5761    5762    5761    5763    5761    5764    5761    5765
    5765    5766    5765    5775    5766    5767    5766    5768
    5766    5769    5769    5770    5769    5771    5769    5772
    5772    5773    5772    5774    5772    5775    5775    5776
    5777    5778    5777    5779    5777    5780    5777    5781
    5781    5782    5781    5791    5782    5783    5782    5784
    5782    5785    5785    5786    5785    5787    5785    5788
    5788    5789    5788    5790    5788    5791    5791    5792
    5793    5794    5793    5795    5793    5796    5793    5797
    5797    5798    5797    5807    5798    5799    5798    5800
    5798    5801    5801    5802    5801    5803    5801    5804
    5804    5805    5804    5806    5804    5807    5807    5808
    5809    5810    5809    5811    5809    5812    5809    5813
    5813    5814    5813    5823    5814    5815    5814    5816
    5814    5817    5817    5818    5817    5819    5817    5820
    5820    5821    5820    5822    5820    5823    5823    5824
    5825    5826    5825    5827    5825    5828    5825    5829
    5829    5830    5829    5839    5830    5831    5830    5832
    5830    5833    5833    5834    5833    5835    5833    5836
    5836    5837    5836    5838    5836    5839    5839    5840
    5841    5842    5841    5843    5841    5844    5841    5845
    5845    5846    5845    5855    5846    5847    5846    5848
    5846    5849    5849    5850    5849    5851    5849    5852
    5852    5853    5852    5854    5852    5855    5855    5856
    5857    5858    5857    5859    5857    5860    5857    5861
    5861    5862    5861    5871    5862    5863    5862    5864
    5862    5865    5865    5866    5865    5867    5865    5868
    5868    5869    5868    5870    5868    5871    5871    5872
    5873    5874    5873    5875    5873    5876    5873    5877
    5877    5878    5877    5887    5878    5879    5878    5880
    5878    5881    5881    5882    5881    5883    5881    5884
    5884    5885    5884    5886    5884    5887    5887    5888
    5889    5890    5889    5891    5889    5892    5889    5893
    5893    5894    5893    5903    5894    5895    5894    5896
    5894    5897    5897    5898    5897    5899    5897    5900
    5900    5901    5900    5902    5900    5903    5903    5904
    5905    5906    5905    5907    5905    5908    5905    5909
    5909    5910    5909    5919    5910    5911    5910    5912
    5910    5913    5913    5914    5913    5915    5913    5916
    5916    5917    5916    5918    5916    5919    5919    5920
    5921    5922    5921    5923    5921    5924    5921    5925
    5925    5926    5925    5935    5926    5927    5926    5928
    5926    5929    5929    5930    5929    5931    5929    5932
    5932    5933    5932    5934    5932    5935    5935    5936
    5937    5938    5937    5939    5937    5940    5937    5941
    5941    5942    5941    5951    5942    5943    5942    5944
    5942    5945    5945    5946    5945    5947    5945    5948
    5948    5949    5948    5950    5948    5951    5951    5952
    5953    5954    5953    5955    5953    5956    5953    5957
    5957    5958    5957    5967    5958    5959    5958    5960
    5958    5961    5961    5962    5961    5963    5961    5964
    5964    5965    5964    5966    5964    5967    5967    5968
    5969    5970    5969    5971    5969    5972    5969    5973
    5973    5974    5973    5983    5974    5975    5974    5976
    5974    5977    5977    5978    5977    5979    5977    5980
    5980    5981    5980    5982    5980    5983    5983    5984
    5985    5986    5985    5987    5985    5988    5985    5989
    5989    5990    5989    5999    5990    5991    5990    5992
    5990    5993    5993    5994    5993    5995    5993    5996
    5996    5997    5996    5998    5996    5999    5999    6000
    6001    6002    6001    6003    6001    6004    6001    6005
    6005    6006    6005    6015    6006    6007    6006    6008
    6006    6009    6009    6010    6009    6011    6009    6012
    6012    6013    6012    6014    6012    6015    6015    6016
    6017    6018    6017    6019    6017    6020    6017    6021
    6021    6022    6021    6031    6022    6023    6022    6024
    6022    6025    6025    6026    6025    6027    6025    6028
    6028    6029    6028    6030    6028    6031    6031    6032
    6033    6034    6033    6035    6033    6036    6033    6037
    6037    6038    6037    6047    6038    6039    6038    6040
    6038    6041    6041    6042    6041    6043    6041    6044
    6044    6045    6044    6046    6044    6047    6047    6048
    6049    6050    6049    6051    6049    6052    6049    6053
    6053    6054    6053    6063    6054    6055    6054    6056
    6054    6057    6057    6058    6057    6059    6057    6060
    6060    6061    6060    6062    6060    6063    6063    6064
    6065    6066    6065    6067    6065    6068    6065    6069
    6069    6070    6069    6079    6070    6071    6070    6072
    6070    6073    6073    6074    6073    6075    6073    6076
    6076    6077    6076    6078    6076    6079    6079    6080
    6081    6082    6081    6083    6081    6084    6081    6085
    6085    6086    6085    6095    6086    6087    6086    6088
    6086    6089    6089    6090    6089    6091    6089    6092
    6092    6093    6092    6094    6092    6095    6095    6096
    6097    6098    6097    6099    6097    6100    6097    6101
    6101    6102    6101    6111    6102    6103    6102    6104
    6102    6105    6105    6106    6105    6107    6105    6108
    6108    6109    6108    6110    6108    6111    6111    6112
    6113    6114    6113    6115    6113    6116    6113    6117
    6117    6118    6117    6127    6118    6119    6118    6120
    6118    6121    6121    6122    6121    6123    6121    6124
    6124    6125    6124    6126    6124    6127    6127    6128
    6129    6130    6129    6131    6129    6132    6129    6133
    6133    6134    6133    6143    6134    6135    6134    6136
    6134    6137    6137    6138    6137    6139    6137    6140
    6140    6141    6140    6142    6140    6143    6143    6144
    6145    6146    6145    6147    6145    6148    6145    6149
    6149    6150    6149    6159    6150    6151    6150    6152
    6150    6153    6153    6154    6153    6155    6153    6156
    6156    6157    6156    6158    6156    6159    6159    6160
    6161    6162    6161    6163    6161    6164    6161    6165
    6165    6166    6165    6175    6166    6167    6166    6168
    6166    6169    6169    6170    6169    6171    6169    6172
    6172    6173    6172    6174    6172    6175    6175    6176
    6177    6178    6177    6179    6177    6180    6177    6181
    6181    6182    6181    6191    6182    6183    6182    6184
    6182    6185    6185    6186    6185    6187    6185    6188
    6188    6189    6188    6190    6188    6191    6191    6192
    6193    6194    6193    6195    6193    6196    6193    6197
    6197    6198    6197    6207    6198    6199    6198    6200
    6198    6201    6201    6202    6201    6203    6201    6204
    6204    6205    6204    6206    6204    6207    6207    6208
    6209    6210    6209    6211    6209    6212    6209    6213
    6213    6214    6213    6223    6214    6215    6214    6216
    6214    6217    6217    6218    6217    6219    6217    6220
    6220    6221    6220    6222    6220    6223    6223    6224
    6225    6226    6225    6227    6225    6228    6225    6229
    6229    6230    6229    6239    6230    6231    6230    6232
    6230    6233    6233    6234    6233    6235    6233    6236
    6236    6237    6236    6238    6236    6239    6239    6240
    6241    6242    6241    6243    6241    6244    6241    6245
    6245    6246    6245    6255    6246    6247    6246    6248
    6246    6249    6249    6250    6249    6251    6249    6252
    6252    6253    6252    6254    6252    6255    6255    6256
    6257    6258    6257    6259    6257    6260    6257    6261
    6261    6262    6261    6271    6262    6263    6262    6264
    6262    6265    6265    6266    6265    6267    6265    6268
    6268    6269    6268    6270    6268    6271    6271    6272
    6273    6274    6273    6275    6273    6276    6273    6277
    6277    6278    6277    6287    6278    6279    6278    6280
    6278    6281    6281    6282    6281    6283    6281    6284
    6284    6285    6284    6286    6284    6287    6287    6288
    6289    6290    6289    6291    6289    6292    6289    6293
    6293    6294    6293    6303    6294    6295    6294    6296
    6294    6297    6297    6298    6297    6299    6297    6300
    6300    6301    6300    6302    6300    6303    6303    6304
    6305    6306    6305    6307    6305    6308    6305    6309
    6309    6310    6309    6319    6310    6311    6310    6312
    6310    6313    6313    6314    6313    6315    6313    6316
    6316    6317    6316    6318    6316    6319    6319    6320
    6321    6322    6321    6323    6321    6324    6321    6325
    6325    6326    6325    6335    6326    6327    6326    6328
    6326    6329    6329    6330    6329    6331    6329    6332
    6332    6333    6332    6334    6332    6335    6335    6336
    6337    6338    6337    6339    6337    6340    6337    6341
    6341    6342    6341    6351    6342    6343    6342    6344
    6342    6345    6345    6346    6345    6347    6345    6348
    6348    6349    6348    6350    6348    6351    6351    6352
    6353    6354    6353    6355    6353    6356    6353    6357
    6357    6358    6357    6367    6358    6359    6358    6360
    6358    6361    6361    6362    6361    6363    6361    6364
    6364    6365    6364    6366    6364    6367    6367    6368
    6369    6370    6369    6371    6369    6372    6369    6373
    6373    6374    6373    6383    6374    6375    6374    6376
    6374    6377    6377    6378    6377    6379    6377    6380
    6380    6381    6380    6382    6380    6383    6383    6384
    6385    6386    6385    6387    6385    6388    6385    6389
    6389    6390    6389    6399    6390    6391    6390    6392
    6390    6393    6393    6394    6393    6395    6393    6396
    6396    6397    6396    6398    6396    6399    6399    6400
    6401    6402    6401    6403    6401    6404    6401    6405
    6405    6406    6405    6415    6406    6407    6406    6408
    6406    6409    6409    6410    6409    6411    6409    6412
    6412    6413    6412    6414    6412    6415    6415    6416
    6417    6418    6417    6419    6417    6420    6417    6421
    6421    6422    6421    6431    6422    6423    6422    6424
    6422    6425    6425    6426    6425    6427    6425    6428
    6428    6429    6428    6430    6428    6431    6431    6432
    6433    6434    6433    6435    6433    6436    6433    6437
    6437    6438    6437    6447    6438    6439    6438    6440
    6438    6441    6441    6442    6441    6443    6441    6444
    6444    6445    6444    6446    6444    6447    6447    6448
    6449    6450    6449    6451    6449    6452    6449    6453
    6453    6454    6453    6463    6454    6455    6454    6456
    6454    6457    6457    6458    6457    6459    6457    6460
    6460    6461    6460    6462    6460    6463    6463    6464
    6465    6466    6465    6467    6465    6468    6465    6469
    6469    6470    6469    6479    6470    6471    6470    6472
    6470    6473    6473    6474    6473    6475    6473    6476
    6476    6477    6476    6478    6476    6479    6479    6480
    6481    6482    6481    6483    6481    6484    6481    6485
    6485    6486    6485    6495    6486    6487    6486    6488
    6486    6489    6489    6490    6489    6491    6489    6492
    6492    6493    6492    6494    6492    6495    6495    6496
    6497    6498    6497    6499    6497    6500    6497    6501
    6501    6502    6501    6511    6502    6503    6502    6504
    6502    6505    6505    6506    6505    6507    6505    6508
    6508    6509    6508    6510    6508    6511    6511    6512
    6513    6514    6513    6515    6513    6516    6513    6517
    6517    6518    6517    6527    6518    6519    6518    6520
    6518    6521    6521    6522    6521    6523    6521    6524
    6524    6525    6524    6526    6524    6527    6527    6528
    6529    6530    6529    6531    6529    6532    6529    6533
    6533    6534    6533    6543    6534    6535    6534    6536
    6534    6537    6537    6538    6537    6539    6537    6540
    6540    6541    6540    6542    6540    6543    6543    6544
    6545    6546    6545    6547    6545    6548    6545    6549
    6549    6550    6549    6559    6550    6551    6550    6552
    6550    6553    6553    6554    6553    6555    6553    6556
    6556    6557    6556    6558    6556    6559    6559    6560
    6561    6562    6561    6563    6561    6564    6561    6565
    6565    6566    6565    6575    6566    6567    6566    6568
    6566    6569    6569    6570    6569    6571    6569    6572
    6572    6573    6572    6574    6572    6575    6575    6576
    6577    6578    6577    6579    6577    6580    6577    6581
    6581    6582    6581    6591    6582    6583    6582    6584
    6582    6585    6585    6586    6585    6587    6585    6588
    6588    6589    6588    6590    6588    6591    6591    6592
    6593    6594    6593    6595    6593    6596    6593    6597
    6597    6598    6597    6607    6598    6599    6598    6600
    6598    6601    6601    6602    6601    6603    6601    6604
    6604    6605    6604    6606    6604    6607    6607    6608
    6609    6610    6609    6611    6609    6612    6609    6613
    6613    6614    6613    6623    6614    6615    6614    6616
    6614    6617    6617    6618    6617    6619    6617    6620
    6620    6621    6620    6622    6620    6623    6623    6624
    6625    6626    6625    6627    6625    6628    6625    6629
    6629    6630    6629    6639    6630    6631    6630    6632
    6630    6633    6633    6634    6633    6635    6633    6636
    6636    6637    6636    6638    6636    6639    6639    6640
    6641    6642    6641    6643    6641    6644    6641    6645
    6645    6646    6645    6655    6646    6647    6646    6648
    6646    6649    6649    6650    6649    6651    6649    6652
    6652    6653    6652    6654    6652    6655    6655    6656
    6657    6658    6657    6659    6657    6660    6657    6661
    6661    6662    6661    6671    6662    6663    6662    6664
    6662    6665    6665    6666    6665    6667    6665    6668
    6668    6669    6668    6670    6668    6671    6671    6672
    6673    6674    6673    6675    6673    6676    6673    6677
    6677    6678    6677    6687    6678    6679    6678    6680
    6678    6681    6681    6682    6681    6683    6681    6684
    6684    6685    6684    6686    6684    6687    6687    6688
    6689    6690    6689    6691    6689    6692    6689    6693
    6693    6694    6693    6703    6694    6695    6694    6696
    6694    6697    6697    6698    6697    6699    6697    6700
    6700    6701    6700    6702    6700    6703    6703    6704
    6705    6706    6705    6707    6705    6708    6705    6709
    6709    6710    6709    6719    6710    6711    6710    6712
    6710    6713    6713    6714    6713    6715    6713    6716
    6716    6717    6716    6718    6716    6719    6719    6720
    6721    6722    6721    6723    6721    6724    6721    6725
    6725    6726    6725    6735    6726    6727    6726    6728
    6726    6729    6729    6730    6729    6731    6729    6732
    6732    6733    6732    6734    6732    6735    6735    6736
    6737    6738    6737    6739    6737    6740    6737    6741
    6741    6742    6741    6751    6742    6743    6742    6744
    6742    6745    6745    6746    6745    6747    6745    6748
    6748    6749    6748    6750    6748    6751    6751    6752
    6753    6754    6753    6755    6753    6756    6753    6757
    6757    6758    6757    6767    6758    6759    6758    6760
    6758    6761    6761    6762    6761    6763    6761    6764
    6764    6765    6764    6766    6764    6767    6767    6768
    6769    6770    6769    6771    6769    6772    6769    6773
    6773    6774    6773    6783    6774    6775    6774    6776
    6774    6777    6777    6778    6777    6779    6777    6780
    6780    6781    6780    6782    6780    6783    6783    6784
    6785    6786    6785    6787    6785    6788    6785    6789
    6789    6790    6789    6799    6790    6791    6790    6792
    6790    6793    6793    6794    6793    6795    6793    6796
    6796    6797    6796    6798    6796    6799    6799    6800
    6801    6802    6801    6803    6801    6804    6801    6805
    6805    6806    6805    6815    6806    6807    6806    6808
    6806    6809    6809    6810    6809    6811    6809    6812
    6812    6813    6812    6814    6812    6815    6815    6816
    6817    6818    6817    6819    6817    6820    6817    6821
    6821    6822    6821    6831    6822    6823    6822    6824
    6822    6825    6825    6826    6825    6827    6825    6828
    6828    6829    6828    6830    6828    6831    6831    6832
    6833    6834    6833    6835    6833    6836    6833    6837
    6837    6838    6837    6847    6838    6839    6838    6840
    6838    6841    6841    6842    6841    6843    6841    6844
    6844    6845    6844    6846    6844    6847    6847    6848
    6849    6850    6849    6851    6849    6852    6849    6853
    6853    6854    6853    6863    6854    6855    6854    6856
    6854    6857    6857    6858    6857    6859    6857    6860
    6860    6861    6860    6862    6860    6863    6863    6864
    6865    6866    6865    6867    6865    6868    6865    6869
    6869    6870    6869    6879    6870    6871    6870    6872
    6870    6873    6873    6874    6873    6875    6873    6876
    6876    6877    6876    6878    6876    6879    6879    6880
    6881    6882    6881    6883    6881    6884    6881    6885
    6885    6886    6885    6895    6886    6887    6886    6888
    6886    6889    6889    6890    6889    6891    6889    6892
    6892    6893    6892    6894    6892    6895    6895    6896
    6897    6898    6897    6899    6897    6900    6897    6901
    6901    6902    6901    6911    6902    6903    6902    6904
    6902    6905    6905    6906    6905    6907    6905    6908
    6908    6909    6908    6910    6908    6911    6911    6912
    6913    6914    6913    6915    6913    6916    6913    6917
    6917    6918    6917    6927    6918    6919    6918    6920
    6918    6921    6921    6922    6921    6923    6921    6924
    6924    6925    6924    6926    6924    6927    6927    6928
    6929    6930    6929    6931    6929    6932    6929    6933
    6933    6934    6933    6943    6934    6935    6934    6936
    6934    6937    6937    6938    6937    6939    6937    6940
    6940    6941    6940    6942    6940    6943    6943    6944
    6945    6946    6945    6947    6945    6948    6945    6949
    6949    6950    6949    6959    6950    6951    6950    6952
    6950    6953    6953    6954    6953    6955    6953    6956
    6956    6957    6956    6958    6956    6959    6959    6960
    6961    6962    6961    6963    6961    6964    6961    6965
    6965    6966    6965    6975    6966    6967    6966    6968
    6966    6969    6969    6970    6969    6971    6969    6972
    6972    6973    6972    6974    6972    6975    6975    6976
    6977    6978    6977    6979    6977    6980    6977    6981
    6981    6982    6981    6991    6982    6983    6982    6984
    6982    6985    6985    6986    6985    6987    6985    6988
    6988    6989    6988    6990    6988    6991    6991    6992
    6993    6994    6993    6995    6993    6996    6993    6997
    6997    6998    6997    7007    6998    6999    6998    7000
    6998    7001    7001    7002    7001    7003    7001    7004
    7004    7005    7004    7006    7004    7007    7007    7008
    7009    7010    7009    7011    7009    7012    7009    7013
    7013    7014    7013    7023    7014    7015    7014    7016
    7014    7017    7017    7018    7017    7019    7017    7020
    7020    7021    7020    7022    7020    7023    7023    7024
    7025    7026    7025    7027    7025    7028    7025    7029
    7029    7030    7029    7039    7030    7031    7030    7032
    7030    7033    7033    7034    7033    7035    7033    7036
    7036    7037    7036    7038    7036    7039    7039    7040
    7041    7042    7041    7043    7041    7044    7041    7045
    7045    7046    7045    7055    7046    7047    7046    7048
    7046    7049    7049    7050    7049    7051    7049    7052
    7052    7053    7052    7054    7052    7055    7055    7056
    7057    7058    7057    7059    7057    7060    7057    7061
    7061    7062    7061    7071    7062    7063    7062    7064
    7062    7065    7065    7066    7065    7067    7065    7068
    7068    7069    7068    7070    7068    7071    7071    7072
    7073    7074    7073    7075    7073    7076    7073    7077
    7077    7078    7077    7087    7078    7079    7078    7080
    7078    7081    7081    7082    7081    7083    7081    7084
    7084    7085    7084    7086    7084    7087    7087    7088
    7089    7090    7089    7091    7089    7092    7089    7093
    7093    7094    7093    7103    7094    7095    7094    7096
    7094    7097    7097    7098    7097    7099    7097    7100
    7100    7101    7100    7102    7100    7103    7103    7104
    7105    7106    7105    7107    7105    7108    7105    7109
    7109    7110    7109    7119    7110    7111    7110    7112
    7110    7113    7113    7114    7113    7115    7113    7116
    7116    7117    7116    7118    7116    7119    7119    7120
    7121    7122    7121    7123    7121    7124    7121    7125
    7125    7126    7125    7135    7126    7127    7126    7128
    7126    7129    7129    7130    7129    7131    7129    7132
    7132    7133    7132    7134    7132    7135    7135    7136
    7137    7138    7137    7139    7137    7140    7137    7141
    7141    7142    7141    7151    7142    7143    7142    7144
    7142    7145    7145    7146    7145    7147    7145    7148
    7148    7149    7148    7150    7148    7151    7151    7152
    7153    7154    7153    7155    7153    7156    7153    7157
    7157    7158    7157    7167    7158    7159    7158    7160
    7158    7161    7161    7162    7161    7163    7161    7164
    7164    7165    7164    7166    7164    7167    7167    7168
    7169    7170    7169    7171    7169    7172    7169    7173
    7173    7174    7173    7183    7174    7175    7174    7176
    7174    7177    7177    7178    7177    7179    7177    7180
    7180    7181    7180    7182    7180    7183    7183    7184
    7185    7186    7185    7187    7185    7188    7185    7189
    7189    7190    7189    7199    7190    7191    7190    7192
    7190    7193    7193    7194    7193    7195    7193    7196
    7196    7197    7196    7198    7196    7199    7199    7200
    7201    7202    7201    7203    7201    7204    7201    7205
    7205    7206    7205    7215    7206    7207    7206    7208
    7206    7209    7209    7210    7209    7211    7209    7212
    7212    7213    7212    7214    7212    7215    7215    7216
    7217    7218    7217    7219    7217    7220    7217    7221
    7221    7222    7221    7231    7222    7223    7222    7224
    7222    7225    7225    7226    7225    7227    7225    7228
    7228    7229    7228    7230    7228    7231    7231    7232
    7233    7234    7233    7235    7233    7236    7233    7237
    7237    7238    7237    7247    7238    7239    7238    7240
    7238    7241    7241    7242    7241    7243    7241    7244
    7244    7245    7244    7246    7244    7247    7247    7248
    7249    7250    7249    7251    7249    7252    7249    7253
    7253    7254    7253    7263    7254    7255    7254    7256
    7254    7257    7257    7258    7257    7259    7257    7260
    7260    7261    7260    7262    7260    7263    7263    7264
    7265    7266    7265    7267    7265    7268    7265    7269
    7269    7270    7269    7279    7270    7271    7270    7272
    7270    7273    7273    7274    7273    7275    7273    7276
    7276    7277    7276    7278    7276    7279    7279    7280
    7281    7282    7281    7283    7281    7284    7281    7285
    7285    7286    7285    7295    7286    7287    7286    7288
    7286    7289    7289    7290    7289    7291    7289    7292
    7292    7293    7292    7294    7292    7295    7295    7296
    7297    7298    7297    7299    7297    7300    7297    7301
    7301    7302    7301    7311    7302    7303    7302    7304
    7302    7305    7305    7306    7305    7307    7305    7308
    7308    7309    7308    7310    7308    7311    7311    7312
    7313    7314    7313    7315    7313    7316    7313    7317
    7317    7318    7317    7327    7318    7319    7318    7320
    7318    7321    7321    7322    7321    7323    7321    7324
    7324    7325    7324    7326    7324    7327    7327    7328
    7329    7330    7329    7331    7329    7332    7329    7333
    7333    7334    7333    7343    7334    7335    7334    7336
    7334    7337    7337    7338    7337    7339    7337    7340
    7340    7341    7340    7342    7340    7343    7343    7344
    7345    7346    7345    7347    7345    7348    7345    7349
    7349    7350    7349    7359    7350    7351    7350    7352
    7350    7353    7353    7354    7353    7355    7353    7356
    7356    7357    7356    7358    7356    7359    7359    7360
    7361    7362    7361    7363    7361    7364    7361    7365
    7365    7366    7365    7375    7366    7367    7366    7368
    7366    7369    7369    7370    7369    7371    7369    7372
    7372    7373    7372    7374    7372    7375    7375    7376
    7377    7378    7377    7379    7377    7380    7377    7381
    7381    7382    7381    7391    7382    7383    7382    7384
    7382    7385    7385    7386    7385    7387    7385    7388
    7388    7389    7388    7390    7388    7391    7391    7392
    7393    7394    7393    7395    7393    7396    7393    7397
    7397    7398    7397    7407    7398    7399    7398    7400
    7398    7401    7401    7402    7401    7403    7401    7404
    7404    7405    7404    7406    7404    7407    7407    7408
    7409    7410    7409    7411    7409    7412    7409    7413
    7413    7414    7413    7423    7414    7415    7414    7416
    7414    7417    7417    7418    7417    7419    7417    7420
    7420    7421    7420    7422    7420    7423    7423    7424
    7425    7426    7425    7427    7425    7428    7425    7429
    7429    7430    7429    7439    7430    7431    7430    7432
    7430    7433    7433    7434    7433    7435    7433    7436
    7436    7437    7436    7438    7436    7439    7439    7440
    7441    7442    7441    7443    7441    7444    7441    7445
    7445    7446    7445    7455    7446    7447    7446    7448
    7446    7449    7449    7450    7449    7451    7449    7452
    7452    7453    7452    7454    7452    7455    7455    7456
    7457    7458    7457    7459    7457    7460    7457    7461
    7461    7462    7461    7471    7462    7463    7462    7464
    7462    7465    7465    7466    7465    7467    7465    7468
    7468    7469    7468    7470    7468    7471    7471    7472
    7473    7474    7473    7475    7473    7476    7473    7477
    7477    7478    7477    7487    7478    7479    7478    7480
    7478    7481    7481    7482    7481    7483    7481    7484
    7484    7485    7484    7486    7484    7487    7487    7488
    7489    7490    7489    7491    7489    7492    7489    7493
    7493    7494    7493    7503    7494    7495    7494    7496
    7494    7497    7497    7498    7497    7499    7497    7500
    7500    7501    7500    7502    7500    7503    7503    7504
    7505    7506    7505    7507    7505    7508    7505    7509
    7509    7510    7509    7519    7510    7511    7510    7512
    7510    7513    7513    7514    7513    7515    7513    7516
    7516    7517    7516    7518    7516    7519    7519    7520
    7521    7522    7521    7523    7521    7524    7521    7525
    7525    7526    7525    7535    7526    7527    7526    7528
    7526    7529    7529    7530    7529    7531    7529    7532
    7532    7533    7532    7534    7532    7535    7535    7536
    7537    7538    7537    7539    7537    7540    7537    7541
    7541    7542    7541    7551    7542    7543    7542    7544
    7542    7545    7545    7546    7545    7547    7545    7548
    7548    7549    7548    7550    7548    7551    7551    7552
    7553    7554    7553    7555    7553    7556    7553    7557
    7557    7558    7557    7567    7558    7559    7558    7560
    7558    7561    7561    7562    7561    7563    7561    7564
    7564    7565    7564    7566    7564    7567    7567    7568
    7569    7570    7569    7571    7569    7572    7569    7573
    7573    7574    7573    7583    7574    7575    7574    7576
    7574    7577    7577    7578    7577    7579    7577    7580
    7580    7581    7580    7582    7580    7583    7583    7584
    7585    7586    7585    7587    7585    7588    7585    7589
    7589    7590    7589    7599    7590    7591    7590    7592
    7590    7593    7593    7594    7593    7595    7593    7596
    7596    7597    7596    7598    7596    7599    7599    7600
    7601    7602    7601    7603    7601    7604    7601    7605
    7605    7606    7605    7615    7606    7607    7606    7608
    7606    7609    7609    7610    7609    7611    7609    7612
    7612    7613    7612    7614    7612    7615    7615    7616
    7617    7618    7617    7619    7617    7620    7617    7621
    7621    7622    7621    7631    7622    7623    7622    7624
    7622    7625    7625    7626    7625    7627    7625    7628
    7628    7629    7628    7630    7628    7631    7631    7632
    7633    7634    7633    7635    7633    7636    7633    7637
    7637    7638    7637    7647    7638    7639    7638    7640
    7638    7641    7641    7642    7641    7643    7641    7644
    7644    7645    7644    7646    7644    7647    7647    7648
    7649    7650    7649    7651    7649    7652    7649    7653
    7653    7654    7653    7663    7654    7655    7654    7656
    7654    7657    7657    7658    7657    7659    7657    7660
    7660    7661    7660    7662    7660    7663    7663    7664
    7665    7666    7665    7667    7665    7668    7665    7669
    7669    7670    7669    7679    7670    7671    7670    7672
    7670    7673    7673    7674    7673    7675    7673    7676
    7676    7677    7676    7678    7676    7679    7679    7680
    7681    7682    7681    7683    7681    7684    7681    7685
    7685    7686    7685    7695    7686    7687    7686    7688
    7686    7689    7689    7690    7689    7691    7689    7692
    7692    7693    7692    7694    7692    7695    7695    7696
    7697    7698    7697    7699    7697    7700    7697    7701
    7701    7702    7701    7711    7702    7703    7702    7704
    7702    7705    7705    7706    7705    7707    7705    7708
    7708    7709    7708    7710    7708    7711    7711    7712
    7713    7714    7713    7715    7713    7716    7713    7717
    7717    7718    7717    7727    7718    7719    7718    7720
    7718    7721    7721    7722    7721    7723    7721    7724
    7724    7725    7724    7726    7724    7727    7727    7728
    7729    7730    7729    7731    7729    7732    7729    7733
    7733    7734    7733    7743    7734    7735    7734    7736
    7734    7737    7737    7738    7737    7739    7737    7740
    7740    7741    7740    7742    7740    7743    7743    7744
    7745    7746    7745    7747    7745    7748    7745    7749
    7749    7750    7749    7759    7750    7751    7750    7752
    7750    7753    7753    7754    7753    7755    7753    7756
    7756    7757    7756    7758    7756    7759    7759    7760
    7761    7762    7761    7763    7761    7764    7761    7765
    7765    7766    7765    7775    7766    7767    7766    7768
    7766    7769    7769    7770    7769    7771    7769    7772
    7772    7773    7772    7774    7772    7775    7775    7776
    7777    7778    7777    7779    7777    7780    7777    7781
    7781    7782    7781    7791    7782    7783    7782    7784
    7782    7785    7785    7786    7785    7787    7785    7788
    7788    7789    7788    7790    7788    7791    7791    7792
    7793    7794    7793    7795    7793    7796    7793    7797
    7797    7798    7797    7807    7798    7799    7798    7800
    7798    7801    7801    7802    7801    7803    7801    7804
    7804    7805    7804    7806    7804    7807    7807    7808
    7809    7810    7809    7811    7809    7812    7809    7813
    7813    7814    7813    7823    7814    7815    7814    7816
    7814    7817    7817    7818    7817    7819    7817    7820
    7820    7821    7820    7822    7820    7823    7823    7824
    7825    7826    7825    7827    7825    7828    7825    7829
    7829    7830    7829    7839    7830    7831    7830    7832
    7830    7833    7833    7834    7833    7835    7833    7836
    7836    7837    7836    7838    7836    7839    7839    7840
    7841    7842    7841    7843    7841    7844    7841    7845
    7845    7846    7845    7855    7846    7847    7846    7848
    7846    7849    7849    7850    7849    7851    7849    7852
    7852    7853    7852    7854    7852    7855    7855    7856
    7857    7858    7857    7859    7857    7860    7857    7861
    7861    7862    7861    7871    7862    7863    7862    7864
    7862    7865    7865    7866    7865    7867    7865    7868
    7868    7869    7868    7870    7868    7871    7871    7872
    7873    7874    7873    7875    7873    7876    7873    7877
    7877    7878    7877    7887    7878    7879    7878    7880
    7878    7881    7881    7882    7881    7883    7881    7884
    7884    7885    7884    7886    7884    7887    7887    7888
    7889    7890    7889    7891    7889    7892    7889    7893
    7893    7894    7893    7903    7894    7895    7894    7896
    7894    7897    7897    7898    7897    7899    7897    7900
    7900    7901    7900    7902    7900    7903    7903    7904
    7905    7906    7905    7907    7905    7908    7905    7909
    7909    7910    7909    7919    7910    7911    7910    7912
    7910    7913    7913    7914    7913    7915    7913    7916
    7916    7917    7916    7918    7916    7919    7919    7920
    7921    7922    7921    7923    7921    7924    7921    7925
    7925    7926    7925    7935    7926    7927    7926    7928
    7926    7929    7929    7930    7929    7931    7929    7932
    7932    7933    7932    7934    7932    7935    7935    7936
    7937    7938    7937    7939    7937    7940    7937    7941
    7941    7942    7941    7951    7942    7943    7942    7944
    7942    7945    7945    7946    7945    7947    7945    7948
    7948    7949    7948    7950    7948    7951    7951    7952
    7953    7954    7953    7955    7953    7956    7953    7957
    7957    7958    7957    7967    7958    7959    7958    7960
    7958    7961    7961    7962    7961    7963    7961    7964
    7964    7965    7964    7966    7964    7967    7967    7968
    7969    7970    7969    7971    7969    7972    7969    7973
    7973    7974    7973    7983    7974    7975    7974    7976
    7974    7977    7977    7978    7977    7979    7977    7980
    7980    7981    7980    7982    7980    7983    7983    7984
    7985    7986    7985    7987    7985    7988    7985    7989
    7989    7990    7989    7999    7990    7991    7990    7992
    7990    7993    7993    7994    7993    7995    7993    7996
    7996    7997    7996    7998    7996    7999    7999    8000
    8001    8002    8001    8003    8001    8004    8001    8005
    8005    8006    8005    8015    8006    8007    8006    8008
    8006    8009    8009    8010    8009    8011    8009    8012
    8012    8013    8012    8014    8012    8015    8015    8016
    8017    8018    8017    8019    8017    8020    8017    8021
    8021    8022    8021    8031    8022    8023    8022    8024
    8022    8025    8025    8026    8025    8027    8025    8028
    8028    8029    8028    8030    8028    8031    8031    8032
    8033    8034    8033    8035    8033    8036    8033    8037
    8037    8038    8037    8047    8038    8039    8038    8040
    8038    8041    8041    8042    8041    8043    8041    8044
    8044    8045    8044    8046    8044    8047    8047    8048
    8049    8050    8049    8051    8049    8052    8049    8053
    8053    8054    8053    8063    8054    8055    8054    8056
    8054    8057    8057    8058    8057    8059    8057    8060
    8060    8061    8060    8062    8060    8063    8063    8064
    8065    8066    8065    8067    8065    8068    8065    8069
    8069    8070    8069    8079    8070    8071    8070    8072
    8070    8073    8073    8074    8073    8075    8073    8076
    8076    8077    8076    8078    8076    8079    8079    8080
    8081    8082    8081    8083    8081    8084    8081    8085
    8085    8086    8085    8095    8086    8087    8086    8088
    8086    8089    8089    8090    8089    8091    8089    8092
    8092    8093    8092    8094    8092    8095    8095    8096
    8097    8098    8097    8099    8097    8100    8097    8101
    8101    8102    8101    8111    8102    8103    8102    8104
    8102    8105    8105    8106    8105    8107    8105    8108
    8108    8109    8108    8110    8108    8111    8111    8112
    8113    8114    8113    8115    8113    8116    8113    8117
    8117    8118    8117    8127    8118    8119    8118    8120
    8118    8121    8121    8122    8121    8123    8121    8124
    8124    8125    8124    8126    8124    8127    8127    8128
    8129    8130    8129    8131    8129    8132    8129    8133
    8133    8134    8133    8143    8134    8135    8134    8136
    8134    8137    8137    8138    8137    8139    8137    8140
    8140    8141    8140    8142    8140    8143    8143    8144
    8145    8146    8145    8147    8145    8148    8145    8149
    8149    8150    8149    8159    8150    8151    8150    8152
    8150    8153    8153    8154    8153    8155    8153    8156
    8156    8157    8156    8158    8156    8159    8159    8160
    8161    8162    8161    8163    8161    8164    8161    8165
    8165    8166    8165    8175    8166    8167    8166    8168
    8166    8169    8169    8170    8169    8171    8169    8172
    8172    8173    8172    8174    8172    8175    8175    8176
    8177    8178    8177    8179    8177    8180    8177    8181
    8181    8182    8181    8191    8182    8183    8182    8184
    8182    8185    8185    8186    8185    8187    8185    8188
    8188    8189    8188    8190    8188    8191    8191    8192
    8193    8194    8193    8195    8193    8196    8193    8197
    8197    8198    8197    8207    8198    8199    8198    8200
    8198    8201    8201    8202    8201    8203    8201    8204
    8204    8205    8204    8206    8204    8207    8207    8208
    8209    8210    8209    8211    8209    8212    8209    8213
    8213    8214    8213    8223    8214    8215    8214    8216
    8214    8217    8217    8218    8217    8219    8217    8220
    8220    8221    8220    8222    8220    8223    8223    8224
    8225    8226    8225    8227    8225    8228    8225    8229
    8229    8230    8229    8239    8230    8231    8230    8232
    8230    8233    8233    8234    8233    8235    8233    8236
    8236    8237    8236    8238    8236    8239    8239    8240
    8241    8242    8241    8243    8241    8244    8241    8245
    8245    8246    8245    8255    8246    8247    8246    8248
    8246    8249    8249    8250    8249    8251    8249    8252
    8252    8253    8252    8254    8252    8255    8255    8256
    8257    8258    8257    8259    8257    8260    8257    8261
    8261    8262    8261    8271    8262    8263    8262    8264
    8262    8265    8265    8266    8265    8267    8265    8268
    8268    8269    8268    8270    8268    8271    8271    8272
    8273    8274    8273    8275    8273    8276    8273    8277
    8277    8278    8277    8287    8278    8279    8278    8280
    8278    8281    8281    8282    8281    8283    8281    8284
    8284    8285    8284    8286    8284    8287    8287    8288
    8289    8290    8289    8291    8289    8292    8289    8293
    8293    8294    8293    8303    8294    8295    8294    8296
    8294    8297    8297    8298    8297    8299    8297    8300
    8300    8301    8300    8302    8300    8303    8303    8304
    8305    8306    8305    8307    8305    8308    8305    8309
    8309    8310    8309    8319    8310    8311    8310    8312
    8310    8313    8313    8314    8313    8315    8313    8316
    8316    8317    8316    8318    8316    8319    8319    8320
    8321    8322    8321    8323    8321    8324    8321    8325
    8325    8326    8325    8335    8326    8327    8326    8328
    8326    8329    8329    8330    8329    8331    8329    8332
    8332    8333    8332    8334    8332    8335    8335    8336
    8337    8338    8337    8339    8337    8340    8337    8341
    8341    8342    8341    8351    8342    8343    8342    8344
    8342    8345    8345    8346    8345    8347    8345    8348
    8348    8349    8348    8350    8348    8351    8351    8352
    8353    8354    8353    8355    8353    8356    8353    8357
    8357    8358    8357    8367    8358    8359    8358    8360
    8358    8361    8361    8362    8361    8363    8361    8364
    8364    8365    8364    8366    8364    8367    8367    8368
    8369    8370    8369    8371    8369    8372    8369    8373
    8373    8374    8373    8383    8374    8375    8374    8376
    8374    8377    8377    8378    8377    8379    8377    8380
    8380    8381    8380    8382    8380    8383    8383    8384
    8385    8386    8385    8387    8385    8388    8385    8389
    8389    8390    8389    8399    8390    8391    8390    8392
    8390    8393    8393    8394    8393    8395    8393    8396
    8396    8397    8396    8398    8396    8399    8399    8400
    8401    8402    8401    8403    8401    8404    8401    8405
    8405    8406    8405    8415    8406    8407    8406    8408
    8406    8409    8409    8410    8409    8411    8409    8412
    8412    8413    8412    8414    8412    8415    8415    8416
    8417    8418    8417    8419    8417    8420    8417    8421
    8421    8422    8421    8431    8422    8423    8422    8424
    8422    8425    8425    8426    8425    8427    8425    8428
    8428    8429    8428    8430    8428    8431    8431    8432
    8433    8434    8433    8435    8433    8436    8433    8437
    8437    8438    8437    8447    8438    8439    8438    8440
    8438    8441    8441    8442    8441    8443    8441    8444
    8444    8445    8444    8446    8444    8447    8447    8448
    8449    8450    8449    8451    8449    8452    8449    8453
    8453    8454    8453    8463    8454    8455    8454    8456
    8454    8457    8457    8458    8457    8459    8457    8460
    8460    8461    8460    8462    8460    8463    8463    8464
    8465    8466    8465    8467    8465    8468    8465    8469
    8469    8470    8469    8479    8470    8471    8470    8472
    8470    8473    8473    8474    8473    8475    8473    8476
    8476    8477    8476    8478    8476    8479    8479    8480
    8481    8482    8481    8483    8481    8484    8481    8485
    8485    8486    8485    8495    8486    8487    8486    8488
    8486    8489    8489    8490    8489    8491    8489    8492
    8492    8493    8492    8494    8492    8495    8495    8496
    8497    8498    8497    8499    8497    8500    8497    8501
    8501    8502    8501    8511    8502    8503    8502    8504
    8502    8505    8505    8506    8505    8507    8505    8508
    8508    8509    8508    8510    8508    8511    8511    8512
    8513    8514    8513    8515    8513    8516    8513    8517
    8517    8518    8517    8527    8518    8519    8518    8520
    8518    8521    8521    8522    8521    8523    8521    8524
    8524    8525    8524    8526    8524    8527    8527    8528
    8529    8530    8529    8531    8529    8532    8529    8533
    8533    8534    8533    8543    8534    8535    8534    8536
    8534    8537    8537    8538    8537    8539    8537    8540
    8540    8541    8540    8542    8540    8543    8543    8544
    8545    8546    8545    8547    8545    8548    8545    8549
    8549    8550    8549    8559    8550    8551    8550    8552
    8550    8553    8553    8554    8553    8555    8553    8556
    8556    8557    8556    8558    8556    8559    8559    8560
    8561    8562    8561    8563    8561    8564    8561    8565
    8565    8566    8565    8575    8566    8567    8566    8568
    8566    8569    8569    8570    8569    8571    8569    8572
    8572    8573    8572    8574    8572    8575    8575    8576
    8577    8578    8577    8579    8577    8580    8577    8581
    8581    8582    8581    8591    8582    8583    8582    8584
    8582    8585    8585    8586    8585    8587    8585    8588
    8588    8589    8588    8590    8588    8591    8591    8592
    8593    8594    8593    8595    8593    8596    8593    8597
    8597    8598    8597    8607    8598    8599    8598    8600
    8598    8601    8601    8602    8601    8603    8601    8604
    8604    8605    8604    8606    8604    8607    8607    8608
    8609    8610    8609    8611    8609    8612    8609    8613
    8613    8614    8613    8623    8614    8615    8614    8616
    8614    8617    8617    8618    8617    8619    8617    8620
    8620    8621    8620    8622    8620    8623    8623    8624
    8625    8626    8625    8627    8625    8628    8625    8629
    8629    8630    8629    8639    8630    8631    8630    8632
    8630    8633    8633    8634    8633    8635    8633    8636
    8636    8637    8636    8638    8636    8639    8639    8640
    8641    8642    8641    8643    8641    8644    8641    8645
    8645    8646    8645    8655    8646    8647    8646    8648
    8646    8649    8649    8650    8649    8651    8649    8652
    8652    8653    8652    8654    8652    8655    8655    8656
    8657    8658    8657    8659    8657    8660    8657    8661
    8661    8662    8661    8671    8662    8663    8662    8664
    8662    8665    8665    8666    8665    8667    8665    8668
    8668    8669    8668    8670    8668    8671    8671    8672
    8673    8674    8673    8675    8673    8676    8673    8677
    8677    8678    8677    8687    8678    8679    8678    8680
    8678    8681    8681    8682    8681    8683    8681    8684
    8684    8685    8684    8686    8684    8687    8687    8688
    8689    8690    8689    8691    8689    8692    8689    8693
    8693    8694    8693    8703    8694    8695    8694    8696
    8694    8697    8697    8698    8697    8699    8697    8700
    8700    8701    8700    8702    8700    8703    8703    8704
    8705    8706    8705    8707    8705    8708    8705    8709
    8709    8710    8709    8719    8710    8711    8710    8712
    8710    8713    8713    8714    8713    8715    8713    8716
    8716    8717    8716    8718    8716    8719    8719    8720
    8721    8722    8721    8723    8721    8724    8721    8725
    8725    8726    8725    8735    8726    8727    8726    8728
    8726    8729    8729    8730    8729    8731    8729    8732
    8732    8733    8732    8734    8732    8735    8735    8736
    8737    8738    8737    8739    8737    8740    8737    8741
    8741    8742    8741    8751    8742    8743    8742    8744
    8742    8745    8745    8746    8745    8747    8745    8748
    8748    8749    8748    8750    8748    8751    8751    8752
    8753    8754    8753    8755    8753    8756    8753    8757
    8757    8758    8757    8767    8758    8759    8758    8760
    8758    8761    8761    8762    8761    8763    8761    8764
    8764    8765    8764    8766    8764    8767    8767    8768
    8769    8770    8769    8771    8769    8772    8769    8773
    8773    8774    8773    8783    8774    8775    8774    8776
    8774    8777    8777    8778    8777    8779    8777    8780
    8780    8781    8780    8782    8780    8783    8783    8784
    8785    8786    8785    8787    8785    8788    8785    8789
    8789    8790    8789    8799    8790    8791    8790    8792
    8790    8793    8793    8794    8793    8795    8793    8796
    8796    8797    8796    8798    8796    8799    8799    8800
    8801    8802    8801    8803    8801    8804    8801    8805
    8805    8806    8805    8815    8806    8807    8806    8808
    8806    8809    8809    8810    8809    8811    8809    8812
    8812    8813    8812    8814    8812    8815    8815    8816
    8817    8818    8817    8819    8817    8820    8817    8821
    8821    8822    8821    8831    8822    8823    8822    8824
    8822    8825    8825    8826    8825    8827    8825    8828
    8828    8829    8828    8830    8828    8831    8831    8832
    8833    8834    8833    8835    8833    8836    8833    8837
    8837    8838    8837    8847    8838    8839    8838    8840
    8838    8841    8841    8842    8841    8843    8841    8844
    8844    8845    8844    8846    8844    8847    8847    8848
    8849    8850    8849    8851    8849    8852    8849    8853
    8853    8854    8853    8863    8854    8855    8854    8856
    8854    8857    8857    8858    8857    8859    8857    8860
    8860    8861    8860    8862    8860    8863    8863    8864
    8865    8866    8865    8867    8865    8868    8865    8869
    8869    8870    8869    8879    8870    8871    8870    8872
    8870    8873    8873    8874    8873    8875    8873    8876
    8876    8877    8876    8878    8876    8879    8879    8880
    8881    8882    8881    8883    8881    8884    8881    8885
    8885    8886    8885    8895    8886    8887    8886    8888
    8886    8889    8889    8890    8889    8891    8889    8892
    8892    8893    8892    8894    8892    8895    8895    8896
    8897    8898    8897    8899    8897    8900    8897    8901
    8901    8902    8901    8911    8902    8903    8902    8904
    8902    8905    8905    8906    8905    8907    8905    8908
    8908    8909    8908    8910    8908    8911    8911    8912
    8913    8914    8913    8915    8913    8916    8913    8917
    8917    8918    8917    8927    8918    8919    8918    8920
    8918    8921    8921    8922    8921    8923    8921    8924
    8924    8925    8924    8926    8924    8927    8927    8928
    8929    8930    8929    8931    8929    8932    8929    8933
    8933    8934    8933    8943    8934    8935    8934    8936
    8934    8937    8937    8938    8937    8939    8937    8940
    8940    8941    8940    8942    8940    8943    8943    8944
    8945    8946    8945    8947    8945    8948    8945    8949
    8949    8950    8949    8959    8950    8951    8950    8952
    8950    8953    8953    8954    8953    8955    8953    8956
    8956    8957    8956    8958    8956    8959    8959    8960
    8961    8962    8961    8963    8961    8964    8961    8965
    8965    8966    8965    8975    8966    8967    8966    8968
    8966    8969    8969    8970    8969    8971    8969    8972
    8972    8973    8972    8974    8972    8975    8975    8976
    8977    8978    8977    8979    8977    8980    8977    8981
    8981    8982    8981    8991    8982    8983    8982    8984
    8982    8985    8985    8986    8985    8987    8985    8988
    8988    8989    8988    8990    8988    8991    8991    8992
    8993    8994    8993    8995    8993    8996    8993    8997
    8997    8998    8997    9007    8998    8999    8998    9000
    8998    9001    9001    9002    9001    9003    9001    9004
    9004    9005    9004    9006    9004    9007    9007    9008
    9009    9010    9009    9011    9009    9012    9009    9013
    9013    9014    9013    9023    9014    9015    9014    9016
    9014    9017    9017    9018    9017    9019    9017    9020
    9020    9021    9020    9022    9020    9023    9023    9024
    9025    9026    9025    9027    9025    9028    9025    9029
    9029    9030    9029    9039    9030    9031    9030    9032
    9030    9033    9033    9034    9033    9035    9033    9036
    9036    9037    9036    9038    9036    9039    9039    9040
    9041    9042    9041    9043    9041    9044    9041    9045
    9045    9046    9045    9055    9046    9047    9046    9048
    9046    9049    9049    9050    9049    9051    9049    9052
    9052    9053    9052    9054    9052    9055    9055    9056
    9057    9058    9057    9059    9057    9060    9057    9061
    9061    9062    9061    9071    9062    9063    9062    9064
    9062    9065    9065    9066    9065    9067    9065    9068
    9068    9069    9068    9070    9068    9071    9071    9072
    9073    9074    9073    9075    9073    9076    9073    9077
    9077    9078    9077    9087    9078    9079    9078    9080
    9078    9081    9081    9082    9081    9083    9081    9084
    9084    9085    9084    9086    9084    9087    9087    9088
    9089    9090    9089    9091    9089    9092    9089    9093
    9093    9094    9093    9103    9094    9095    9094    9096
    9094    9097    9097    9098    9097    9099    9097    9100
    9100    9101    9100    9102    9100    9103    9103    9104
    9105    9106    9105    9107    9105    9108    9105    9109
    9109    9110    9109    9119    9110    9111    9110    9112
    9110    9113    9113    9114    9113    9115    9113    9116
    9116    9117    9116    9118    9116    9119    9119    9120
    9121    9122    9121    9123    9121    9124    9121    9125
    9125    9126    9125    9135    9126    9127    9126    9128
    9126    9129    9129    9130    9129    9131    9129    9132
    9132    9133    9132    9134    9132    9135    9135    9136
    9137    9138    9137    9139    9137    9140    9137    9141
    9141    9142    9141    9151    9142    9143    9142    9144
    9142    9145    9145    9146    9145    9147    9145    9148
    9148    9149    9148    9150    9148    9151    9151    9152
    9153    9154    9153    9155    9153    9156    9153    9157
    9157    9158    9157    9167    9158    9159    9158    9160
    9158    9161    9161    9162    9161    9163    9161    9164
    9164    9165    9164    9166    9164    9167    9167    9168
    9169    9170    9169    9171    9169    9172    9169    9173
    9173    9174    9173    9183    9174    9175    9174    9176
    9174    9177    9177    9178    9177    9179    9177    9180
    9180    9181    9180    9182    9180    9183    9183    9184
    9185    9186    9185    9187    9185    9188    9185    9189
    9189    9190    9189    9199    9190    9191    9190    9192
    9190    9193    9193    9194    9193    9195    9193    9196
    9196    9197    9196    9198    9196    9199    9199    9200
    9201    9202    9201    9203    9201    9204    9201    9205
    9205    9206    9205    9215    9206    9207    9206    9208
    9206    9209    9209    9210    9209    9211    9209    9212
    9212    9213    9212    9214    9212    9215    9215    9216
    9217    9218    9217    9219    9217    9220    9217    9221
    9221    9222    9221    9231    9222    9223    9222    9224
    9222    9225    9225    9226    9225    9227    9225    9228
    9228    9229    9228    9230    9228    9231    9231    9232
    9233    9234    9233    9235    9233    9236    9233    9237
    9237    9238    9237    9247    9238    9239    9238    9240
    9238    9241    9241    9242    9241    9243    9241    9244
    9244    9245    9244    9246    9244    9247    9247    9248
    9249    9250    9249    9251    9249    9252    9249    9253
    9253    9254    9253    9263    9254    9255    9254    9256
    9254    9257    9257    9258    9257    9259    9257    9260
    9260    9261    9260    9262    9260    9263    9263    9264
    9265    9266    9265    9267    9265    9268    9265    9269
    9269    9270    9269    9279    9270    9271    9270    9272
    9270    9273    9273    9274    9273    9275    9273    9276
    9276    9277    9276    9278    9276    9279    9279    9280
    9281    9282    9281    9283    9281    9284    9281    9285
    9285    9286    9285    9295    9286    9287    9286    9288
    9286    9289    9289    9290    9289    9291    9289    9292
    9292    9293    9292    9294    9292    9295    9295    9296
    9297    9298    9297    9299    9297    9300    9297    9301
    9301    9302    9301    9311    9302    9303    9302    9304
    9302    9305    9305    9306    9305    9307    9305    9308
    9308    9309    9308    9310    9308    9311    9311    9312
    9313    9314    9313    9315    9313    9316    9313    9317
    9317    9318    9317    9327    9318    9319    9318    9320
    9318    9321    9321    9322    9321    9323    9321    9324
    9324    9325    9324    9326    9324    9327    9327    9328
    9329    9330    9329    9331    9329    9332    9329    9333
    9333    9334    9333    9343    9334    9335    9334    9336
    9334    9337    9337    9338    9337    9339    9337    9340
    9340    9341    9340    9342    9340    9343    9343    9344
    9345    9346    9345    9347    9345    9348    9345    9349
    9349    9350    9349    9359    9350    9351    9350    9352
    9350    9353    9353    9354    9353    9355    9353    9356
    9356    9357    9356    9358    9356    9359    9359    9360
    9361    9362    9361    9363    9361    9364    9361    9365
    9365    9366    9365    9375    9366    9367    9366    9368
    9366    9369    9369    9370    9369    9371    9369    9372
    9372    9373    9372    9374    9372    9375    9375    9376
    9377    9378    9377    9379    9377    9380    9377    9381
    9381    9382    9381    9391    9382    9383    9382    9384
    9382    9385    9385    9386    9385    9387    9385    9388
    9388    9389    9388    9390    9388    9391    9391    9392
    9393    9394    9393    9395    9393    9396    9393    9397
    9397    9398    9397    9407    9398    9399    9398    9400
    9398    9401    9401    9402    9401    9403    9401    9404
    9404    9405    9404    9406    9404    9407    9407    9408
    9409    9410    9409    9411    9409    9412    9409    9413
    9413    9414    9413    9423    9414    9415    9414    9416
    9414    9417    9417    9418    9417    9419    9417    9420
    9420    9421    9420    9422    9420    9423    9423    9424
    9425    9426    9425    9427    9425    9428    9425    9429
    9429    9430    9429    9439    9430    9431    9430    9432
    9430    9433    9433    9434    9433    9435    9433    9436
    9436    9437    9436    9438    9436    9439    9439    9440
    9441    9442    9441    9443    9441    9444    9441    9445
    9445    9446    9445    9455    9446    9447    9446    9448
    9446    9449    9449    9450    9449    9451    9449    9452
    9452    9453    9452    9454    9452    9455    9455    9456
    9457    9458    9457    9459    9457    9460    9457    9461
    9461    9462    9461    9471    9462    9463    9462    9464
    9462    9465    9465    9466    9465    9467    9465    9468
    9468    9469    9468    9470    9468    9471    9471    9472
    9473    9474    9473    9475    9473    9476    9473    9477
    9477    9478    9477    9487    9478    9479    9478    9480
    9478    9481    9481    9482    9481    9483    9481    9484
    9484    9485    9484    9486    9484    9487    9487    9488
    9489    9490    9489    9491    9489    9492    9489    9493
    9493    9494    9493    9503    9494    9495    9494    9496
    9494    9497    9497    9498    9497    9499    9497    9500
    9500    9501    9500    9502    9500    9503    9503    9504
    9505    9506    9505    9507    9505    9508    9505    9509
    9509    9510    9509    9519    9510    9511    9510    9512
    9510    9513    9513    9514    9513    9515    9513    9516
    9516    9517    9516    9518    9516    9519    9519    9520
    9521    9522    9521    9523    9521    9524    9521    9525
    9525    9526    9525    9535    9526    9527    9526    9528
    9526    9529    9529    9530    9529    9531    9529    9532
    9532    9533    9532    9534    9532    9535    9535    9536
    9537    9538    9537    9539    9537    9540    9537    9541
    9541    9542    9541    9551    9542    9543    9542    9544
    9542    9545    9545    9546    9545    9547    9545    9548
    9548    9549    9548    9550    9548    9551    9551    9552
    9553    9554    9553    9555    9553    9556    9553    9557
    9557    9558    9557    9567    9558    9559    9558    9560
    9558    9561    9561    9562    9561    9563    9561    9564
    9564    9565    9564    9566    9564    9567    9567    9568
    9569    9570    9569    9571    9569    9572    9569    9573
    9573    9574    9573    9583    9574    9575    9574    9576
    9574    9577    9577    9578    9577    9579    9577    9580
    9580    9581    9580    9582    9580    9583    9583    9584
    9585    9586    9585    9587    9585    9588    9585    9589
    9589    9590    9589    9599    9590    9591    9590    9592
    9590    9593    9593    9594    9593    9595    9593    9596
    9596    9597    9596    9598    9596    9599    9599    9600
    9601    9602    9601    9603    9601    9604    9601    9605
    9605    9606    9605    9615    9606    9607    9606    9608
    9606    9609    9609    9610    9609    9611    9609    9612
    9612    9613    9612    9614    9612    9615    9615    9616
    9617    9618    9617    9619    9617    9620    9617    9621
    9621    9622    9621    9631    9622    9623    9622    9624
    9622    9625    9625    9626    9625    9627    9625    9628
    9628    9629    9628    9630    9628    9631    9631    9632
    9633    9634    9633    9635    9633    9636    9633    9637
    9637    9638    9637    9647    9638    9639    9638    9640
    9638    9641    9641    9642    9641    9643    9641    9644
    9644    9645    9644    9646    9644    9647    9647    9648
    9649    9650    9649    9651    9649    9652    9649    9653
    9653    9654    9653    9663    9654    9655    9654    9656
    9654    9657    9657    9658    9657    9659    9657    9660
    9660    9661    9660    9662    9660    9663    9663    9664
    9665    9666    9665    9667    9665    9668    9665    9669
    9669    9670    9669    9679    9670    9671    9670    9672
    9670    9673    9673    9674    9673    9675    9673    9676
    9676    9677    9676    9678    9676    9679    9679    9680
    9681    9682    9681    9683    9681    9684    9681    9685
    9685    9686    9685    9695    9686    9687    9686    9688
    9686    9689    9689    9690    9689    9691    9689    9692
    9692    9693    9692    9694    9692    9695    9695    9696
    9697    9698    9697    9699    9697    9700    9697    9701
    9701    9702    9701    9711    9702    9703    9702    9704
    9702    9705    9705    9706    9705    9707    9705    9708
    9708    9709    9708    9710    9708    9711    9711    9712
    9713    9714    9713    9715    9713    9716    9713    9717
    9717    9718    9717    9727    9718    9719    9718    9720
    9718    9721    9721    9722    9721    9723    9721    9724
    9724    9725    9724    9726    9724    9727    9727    9728
    9729    9730    9729    9731    9729    9732    9729    9733
    9733    9734    9733    9743    9734    9735    9734    9736
    9734    9737    9737    9738    9737    9739    9737    9740
    9740    9741    9740    9742    9740    9743    9743    9744
    9745    9746    9745    9747    9745    9748    9745    9749
    9749    9750    9749    9759    9750    9751    9750    9752
    9750    9753    9753    9754    9753    9755    9753    9756
    9756    9757    9756    9758    9756    9759    9759    9760
    9761    9762    9761    9763    9761    9764    9761    9765
    9765    9766    9765    9775    9766    9767    9766    9768
    9766    9769    9769    9770    9769    9771    9769    9772
    9772    9773    9772    9774    9772    9775    9775    9776
    9777    9778    9777    9779    9777    9780    9777    9781
    9781    9782    9781    9791    9782    9783    9782    9784
    9782    9785    9785    9786    9785    9787    9785    9788
    9788    9789    9788    9790    9788    9791    9791    9792
    9793    9794    9793    9795    9793    9796    9793    9797
    9797    9798    9797    9807    9798    9799    9798    9800
    9798    9801    9801    9802    9801    9803    9801    9804
    9804    9805    9804    9806    9804    9807    9807    9808
    9809    9810    9809    9811    9809    9812    9809    9813
    9813    9814    9813    9823    9814    9815    9814    9816
    9814    9817    9817    9818    9817    9819    9817    9820
    9820    9821    9820    9822    9820    9823    9823    9824
    9825    9826    9825    9827    9825    9828    9825    9829
    9829    9830    9829    9839    9830    9831    9830    9832
    9830    9833    9833    9834    9833    9835    9833    9836
    9836    9837    9836    9838    9836    9839    9839    9840
    9841    9842    9841    9843    9841    9844    9841    9845
    9845    9846    9845    9855    9846    9847    9846    9848
    9846    9849    9849    9850    9849    9851    9849    9852
    9852    9853    9852    9854    9852    9855    9855    9856
    9857    9858    9857    9859    9857    9860    9857    9861
    9861    9862    9861    9871    9862    9863    9862    9864
    9862    9865    9865    9866    9865    9867    9865    9868
    9868    9869    9868    9870    9868    9871    9871    9872
    9873    9874    9873    9875    9873    9876    9873    9877
    9877    9878    9877    9887    9878    9879    9878    9880
    9878    9881    9881    9882    9881    9883    9881    9884
    9884    9885    9884    9886    9884    9887    9887    9888
    9889    9890    9889    9891    9889    9892    9889    9893
    9893    9894    9893    9903    9894    9895    9894    9896
    9894    9897    9897    9898    9897    9899    9897    9900
    9900    9901    9900    9902    9900    9903    9903    9904
    9905    9906    9905    9907    9905    9908    9905    9909
    9909    9910    9909    9919    9910    9911    9910    9912
    9910    9913    9913    9914    9913    9915    9913    9916
    9916    9917    9916    9918    9916    9919    9919    9920
    9921    9922    9921    9923    9921    9924    9921    9925
    9925    9926    9925    9935    9926    9927    9926    9928
    9926    9929    9929    9930    9929    9931    9929    9932
    9932    9933    9932    9934    9932    9935    9935    9936
    9937    9938    9937    9939    9937    9940    9937    9941
    9941    9942    9941    9951    9942    9943    9942    9944
    9942    9945    9945    9946    9945    9947    9945    9948
    9948    9949    9948    9950    9948    9951    9951    9952
    9953    9954    9953    9955    9953    9956    9953    9957
    9957    9958    9957    9967    9958    9959    9958    9960
    9958    9961    9961    9962    9961    9963    9961    9964
    9964    9965    9964    9966    9964    9967    9967    9968
    9969    9970    9969    9971    9969    9972    9969    9973
    9973    9974    9973    9983    9974    9975    9974    9976
    9974    9977    9977    9978    9977    9979    9977    9980
    9980    9981    9980    9982    9980    9983    9983    9984
    9985    9986    9985    9987    9985    9988    9985    9989
    9989    9990    9989    9999    9990    9991    9990    9992
    9990    9993    9993    9994    9993    9995    9993    9996
    9996    9997    9996    9998    9996    9999    9999   10000
   10001   10002   10001   10003   10001   10004   10001   10005
   10005   10006   10005   10015   10006   10007   10006   10008
   10006   10009   10009   10010   10009   10011   10009   10012
   10012   10013   10012   10014   10012   10015   10015   10016
   10017   10018   10017   10019   10017   10020   10017   10021
   10021   10022   10021   10031   10022   10023   10022   10024
   10022   10025   10025   10026   10025   10027   10025   10028
   10028   10029   10028   10030   10028   10031   10031   10032
   10033   10034   10033   10035   10033   10036   10033   10037
   10037   10038   10037   10047   10038   10039   10038   10040
   10038   10041   10041   10042   10041   10043   10041   10044
   10044   10045   10044   10046   10044   10047   10047   10048
   10049   10050   10049   10051   10049   10052   10049   10053
   10053   10054   10053   10063   10054   10055   10054   10056
   10054   10057   10057   10058   10057   10059   10057   10060
   10060   10061   10060   10062   10060   10063   10063   10064
   10065   10066   10065   10067   10065   10068   10065   10069
   10069   10070   10069   10079   10070   10071   10070   10072
   10070   10073   10073   10074   10073   10075   10073   10076
   10076   10077   10076   10078   10076   10079   10079   10080
   10081   10082   10081   10083   10081   10084   10081   10085
   10085   10086   10085   10095   10086   10087   10086   10088
   10086   10089   10089   10090   10089   10091   10089   10092
   10092   10093   10092   10094   10092   10095   10095   10096
   10097   10098   10097   10099   10097   10100   10097   10101
   10101   10102   10101   10111   10102   10103   10102   10104
   10102   10105   10105   10106   10105   10107   10105   10108
   10108   10109   10108   10110   10108   10111   10111   10112
   10113   10114   10113   10115   10113   10116   10113   10117
   10117   10118   10117   10127   10118   10119   10118   10120
   10118   10121   10121   10122   10121   10123   10121   10124
   10124   10125   10124   10126   10124   10127   10127   10128
   10129   10130   10129   10131   10129   10132   10129   10133
   10133   10134   10133   10143   10134   10135   10134   10136
   10134   10137   10137   10138   10137   10139   10137   10140
   10140   10141   10140   10142   10140   10143   10143   10144
   10145   10146   10145   10147   10145   10148   10145   10149
   10149   10150   10149   10159   10150   10151   10150   10152
   10150   10153   10153   10154   10153   10155   10153   10156
   10156   10157   10156   10158   10156   10159   10159   10160
   10161   10162   10161   10163   10161   10164   10161   10165
   10165   10166   10165   10175   10166   10167   10166   10168
   10166   10169   10169   10170   10169   10171   10169   10172
   10172   10173   10172   10174   10172   10175   10175   10176
   10177   10178   10177   10179   10177   10180   10177   10181
   10181   10182   10181   10191   10182   10183   10182   10184
   10182   10185   10185   10186   10185   10187   10185   10188
   10188   10189   10188   10190   10188   10191   10191   10192
   10193   10194   10193   10195   10193   10196   10193   10197
   10197   10198   10197   10207   10198   10199   10198   10200
   10198   10201   10201   10202   10201   10203   10201   10204
   10204   10205   10204   10206   10204   10207   10207   10208
   10209   10210   10209   10211   10209   10212   10209   10213
   10213   10214   10213   10223   10214   10215   10214   10216
   10214   10217   10217   10218   10217   10219   10217   10220
   10220   10221   10220   10222   10220   10223   10223   10224
   10225   10226   10225   10227   10225   10228   10225   10229
   10229   10230   10229   10239   10230   10231   10230   10232
   10230   10233   10233   10234   10233   10235   10233   10236
   10236   10237   10236   10238   10236   10239   10239   10240
   10241   10242   10241   10243   10241   10244   10241   10245
   10245   10246   10245   10255   10246   10247   10246   10248
   10246   10249   10249   10250   10249   10251   10249   10252
   10252   10253   10252   10254   10252   10255   10255   10256
   10257   10258   10257   10259   10257   10260   10257   10261
   10261   10262   10261   10271   10262   10263   10262   10264
   10262   10265   10265   10266   10265   10267   10265   10268
   10268   10269   10268   10270   10268   10271   10271   10272
   10273   10274   10273   10275   10273   10276   10273   10277
   10277   10278   10277   10287   10278   10279   10278   10280
   10278   10281   10281   10282   10281   10283   10281   10284
   10284   10285   10284   10286   10284   10287   10287   10288
   10289   10290   10289   10291   10289   10292   10289   10293
   10293   10294   10293   10303   10294   10295   10294   10296
   10294   10297   10297   10298   10297   10299   10297   10300
   10300   10301   10300   10302   10300   10303   10303   10304
   10305   10306   10305   10307   10305   10308   10305   10309
   10309   10310   10309   10319   10310   10311   10310   10312
   10310   10313   10313   10314   10313   10315   10313   10316
   10316   10317   10316   10318   10316   10319   10319   10320
   10321   10322   10321   10323   10321   10324   10321   10325
   10325   10326   10325   10335   10326   10327   10326   10328
   10326   10329   10329   10330   10329   10331   10329   10332
   10332   10333   10332   10334   10332   10335   10335   10336
   10337   10338   10337   10339   10337   10340   10337   10341
   10341   10342   10341   10351   10342   10343   10342   10344
   10342   10345   10345   10346   10345   10347   10345   10348
   10348   10349   10348   10350   10348   10351   10351   10352
   10353   10354   10353   10355   10353   10356   10353   10357
   10357   10358   10357   10367   10358   10359   10358   10360
   10358   10361   10361   10362   10361   10363   10361   10364
   10364   10365   10364   10366   10364   10367   10367   10368
   10369   10370   10369   10371   10369   10372   10369   10373
   10373   10374   10373   10383   10374   10375   10374   10376
   10374   10377   10377   10378   10377   10379   10377   10380
   10380   10381   10380   10382   10380   10383   10383   10384
   10385   10386   10385   10387   10385   10388   10385   10389
   10389   10390   10389   10399   10390   10391   10390   10392
   10390   10393   10393   10394   10393   10395   10393   10396
   10396   10397   10396   10398   10396   10399   10399   10400
   10401   10402   10401   10403   10401   10404   10401   10405
   10405   10406   10405   10415   10406   10407   10406   10408
   10406   10409   10409   10410   10409   10411   10409   10412
   10412   10413   10412   10414   10412   10415   10415   10416
   10417   10418   10417   10419   10417   10420   10417   10421
   10421   10422   10421   10431   10422   10423   10422   10424
   10422   10425   10425   10426   10425   10427   10425   10428
   10428   10429   10428   10430   10428   10431   10431   10432
   10433   10434   10433   10435   10433   10436   10433   10437
   10437   10438   10437   10447   10438   10439   10438   10440
   10438   10441   10441   10442   10441   10443   10441   10444
   10444   10445   10444   10446   10444   10447   10447   10448
   10449   10450   10449   10451   10449   10452   10449   10453
   10453   10454   10453   10463   10454   10455   10454   10456
   10454   10457   10457   10458   10457   10459   10457   10460
   10460   10461   10460   10462   10460   10463   10463   10464
   10465   10466   10465   10467   10465   10468   10465   10469
   10469   10470   10469   10479   10470   10471   10470   10472
   10470   10473   10473   10474   10473   10475   10473   10476
   10476   10477   10476   10478   10476   10479   10479   10480
   10481   10482   10481   10483   10481   10484   10481   10485
   10485   10486   10485   10495   10486   10487   10486   10488
   10486   10489   10489   10490   10489   10491   10489   10492
   10492   10493   10492   10494   10492   10495   10495   10496
   10497   10498   10497   10499   10497   10500   10497   10501
   10501   10502   10501   10511   10502   10503   10502   10504
   10502   10505   10505   10506   10505   10507   10505   10508
   10508   10509   10508   10510   10508   10511   10511   10512
   10513   10514   10513   10515   10513   10516   10513   10517
   10517   10518   10517   10527   10518   10519   10518   10520
   10518   10521   10521   10522   10521   10523   10521   10524
   10524   10525   10524   10526   10524   10527   10527   10528
   10529   10530   10529   10531   10529   10532   10529   10533
   10533   10534   10533   10543   10534   10535   10534   10536
   10534   10537   10537   10538   10537   10539   10537   10540
   10540   10541   10540   10542   10540   10543   10543   10544
   10545   10546   10545   10547   10545   10548   10545   10549
   10549   10550   10549   10559   10550   10551   10550   10552
   10550   10553   10553   10554   10553   10555   10553   10556
   10556   10557   10556   10558   10556   10559   10559   10560
   10561   10562   10561   10563   10561   10564   10561   10565
   10565   10566   10565   10575   10566   10567   10566   10568
   10566   10569   10569   10570   10569   10571   10569   10572
   10572   10573   10572   10574   10572   10575   10575   10576
   10577   10578   10577   10579   10577   10580   10577   10581
   10581   10582   10581   10591   10582   10583   10582   10584
   10582   10585   10585   10586   10585   10587   10585   10588
   10588   10589   10588   10590   10588   10591   10591   10592
   10593   10594   10593   10595   10593   10596   10593   10597
   10597   10598   10597   10607   10598   10599   10598   10600
   10598   10601   10601   10602   10601   10603   10601   10604
   10604   10605   10604   10606   10604   10607   10607   10608
   10609   10610   10609   10611   10609   10612   10609   10613
   10613   10614   10613   10623   10614   10615   10614   10616
   10614   10617   10617   10618   10617   10619   10617   10620
   10620   10621   10620   10622   10620   10623   10623   10624
   10625   10626   10625   10627   10625   10628   10625   10629
   10629   10630   10629   10639   10630   10631   10630   10632
   10630   10633   10633   10634   10633   10635   10633   10636
   10636   10637   10636   10638   10636   10639   10639   10640
   10641   10642   10641   10643   10641   10644   10641   10645
   10645   10646   10645   10655   10646   10647   10646   10648
   10646   10649   10649   10650   10649   10651   10649   10652
   10652   10653   10652   10654   10652   10655   10655   10656
   10657   10658   10657   10659   10657   10660   10657   10661
   10661   10662   10661   10671   10662   10663   10662   10664
   10662   10665   10665   10666   10665   10667   10665   10668
   10668   10669   10668   10670   10668   10671   10671   10672
   10673   10674   10673   10675   10673   10676   10673   10677
   10677   10678   10677   10687   10678   10679   10678   10680
   10678   10681   10681   10682   10681   10683   10681   10684
   10684   10685   10684   10686   10684   10687   10687   10688
   10689   10690   10689   10691   10689   10692   10689   10693
   10693   10694   10693   10703   10694   10695   10694   10696
   10694   10697   10697   10698   10697   10699   10697   10700
   10700   10701   10700   10702   10700   10703   10703   10704
   10705   10706   10705   10707   10705   10708   10705   10709
   10709   10710   10709   10719   10710   10711   10710   10712
   10710   10713   10713   10714   10713   10715   10713   10716
   10716   10717   10716   10718   10716   10719   10719   10720
   10721   10722   10721   10723   10721   10724   10721   10725
   10725   10726   10725   10735   10726   10727   10726   10728
   10726   10729   10729   10730   10729   10731   10729   10732
   10732   10733   10732   10734   10732   10735   10735   10736
   10737   10738   10737   10739   10737   10740   10737   10741
   10741   10742   10741   10751   10742   10743   10742   10744
   10742   10745   10745   10746   10745   10747   10745   10748
   10748   10749   10748   10750   10748   10751   10751   10752
   10753   10754   10753   10755   10753   10756   10753   10757
   10757   10758   10757   10767   10758   10759   10758   10760
   10758   10761   10761   10762   10761   10763   10761   10764
   10764   10765   10764   10766   10764   10767   10767   10768
   10769   10770   10769   10771   10769   10772   10769   10773
   10773   10774   10773   10783   10774   10775   10774   10776
   10774   10777   10777   10778   10777   10779   10777   10780
   10780   10781   10780   10782   10780   10783   10783   10784
   10785   10786   10785   10787   10785   10788   10785   10789
   10789   10790   10789   10799   10790   10791   10790   10792
   10790   10793   10793   10794   10793   10795   10793   10796
   10796   10797   10796   10798   10796   10799   10799   10800
   10801   10802   10801   10803   10801   10804   10801   10805
   10805   10806   10805   10815   10806   10807   10806   10808
   10806   10809   10809   10810   10809   10811   10809   10812
   10812   10813   10812   10814   10812   10815   10815   10816
   10817   10818   10817   10819   10817   10820   10817   10821
   10821   10822   10821   10831   10822   10823   10822   10824
   10822   10825   10825   10826   10825   10827   10825   10828
   10828   10829   10828   10830   10828   10831   10831   10832
   10833   10834   10833   10835   10833   10836   10833   10837
   10837   10838   10837   10847   10838   10839   10838   10840
   10838   10841   10841   10842   10841   10843   10841   10844
   10844   10845   10844   10846   10844   10847   10847   10848
   10849   10850   10849   10851   10849   10852   10849   10853
   10853   10854   10853   10863   10854   10855   10854   10856
   10854   10857   10857   10858   10857   10859   10857   10860
   10860   10861   10860   10862   10860   10863   10863   10864
   10865   10866   10865   10867   10865   10868   10865   10869
   10869   10870   10869   10879   10870   10871   10870   10872
   10870   10873   10873   10874   10873   10875   10873   10876
   10876   10877   10876   10878   10876   10879   10879   10880
   10881   10882   10881   10883   10881   10884   10881   10885
   10885   10886   10885   10895   10886   10887   10886   10888
   10886   10889   10889   10890   10889   10891   10889   10892
   10892   10893   10892   10894   10892   10895   10895   10896
   10897   10898   10897   10899   10897   10900   10897   10901
   10901   10902   10901   10911   10902   10903   10902   10904
   10902   10905   10905   10906   10905   10907   10905   10908
   10908   10909   10908   10910   10908   10911   10911   10912
   10913   10914   10913   10915   10913   10916   10913   10917
   10917   10918   10917   10927   10918   10919   10918   10920
   10918   10921   10921   10922   10921   10923   10921   10924
   10924   10925   10924   10926   10924   10927   10927   10928
   10929   10930   10929   10931   10929   10932   10929   10933
   10933   10934   10933   10943   10934   10935   10934   10936
   10934   10937   10937   10938   10937   10939   10937   10940
   10940   10941   10940   10942   10940   10943   10943   10944
   10945   10946   10945   10947   10945   10948   10945   10949
   10949   10950   10949   10959   10950   10951   10950   10952
   10950   10953   10953   10954   10953   10955   10953   10956
   10956   10957   10956   10958   10956   10959   10959   10960
   10961   10962   10961   10963   10961   10964   10961   10965
   10965   10966   10965   10975   10966   10967   10966   10968
   10966   10969   10969   10970   10969   10971   10969   10972
   10972   10973   10972   10974   10972   10975   10975   10976
   10977   10978   10977   10979   10977   10980   10977   10981
   10981   10982   10981   10991   10982   10983   10982   10984
   10982   10985   10985   10986   10985   10987   10985   10988
   10988   10989   10988   10990   10988   10991   10991   10992
   10993   10994   10993   10995   10993   10996   10993   10997
   10997   10998   10997   11007   10998   10999   10998   11000
   10998   11001   11001   11002   11001   11003   11001   11004
   11004   11005   11004   11006   11004   11007   11007   11008
   11009   11010   11009   11011   11009   11012   11009   11013
   11013   11014   11013   11023   11014   11015   11014   11016
   11014   11017   11017   11018   11017   11019   11017   11020
   11020   11021   11020   11022   11020   11023   11023   11024
   11025   11026   11025   11027   11025   11028   11025   11029
   11029   11030   11029   11039   11030   11031   11030   11032
   11030   11033   11033   11034   11033   11035   11033   11036
   11036   11037   11036   11038   11036   11039   11039   11040
   11041   11042   11041   11043   11041   11044   11041   11045
   11045   11046   11045   11055   11046   11047   11046   11048
   11046   11049   11049   11050   11049   11051   11049   11052
   11052   11053   11052   11054   11052   11055   11055   11056
   11057   11058   11057   11059   11057   11060   11057   11061
   11061   11062   11061   11071   11062   11063   11062   11064
   11062   11065   11065   11066   11065   11067   11065   11068
   11068   11069   11068   11070   11068   11071   11071   11072
   11073   11074   11073   11075   11073   11076   11073   11077
   11077   11078   11077   11087   11078   11079   11078   11080
   11078   11081   11081   11082   11081   11083   11081   11084
   11084   11085   11084   11086   11084   11087   11087   11088
   11089   11090   11089   11091   11089   11092   11089   11093
   11093   11094   11093   11103   11094   11095   11094   11096
   11094   11097   11097   11098   11097   11099   11097   11100
   11100   11101   11100   11102   11100   11103   11103   11104
   11105   11106   11105   11107   11105   11108   11105   11109
   11109   11110   11109   11119   11110   11111   11110   11112
   11110   11113   11113   11114   11113   11115   11113   11116
   11116   11117   11116   11118   11116   11119   11119   11120
   11121   11122   11121   11123   11121   11124   11121   11125
   11125   11126   11125   11135   11126   11127   11126   11128
   11126   11129   11129   11130   11129   11131   11129   11132
   11132   11133   11132   11134   11132   11135   11135   11136
   11137   11138   11137   11139   11137   11140   11137   11141
   11141   11142   11141   11151   11142   11143   11142   11144
   11142   11145   11145   11146   11145   11147   11145   11148
   11148   11149   11148   11150   11148   11151   11151   11152
   11153   11154   11153   11155   11153   11156   11153   11157
   11157   11158   11157   11167   11158   11159   11158   11160
   11158   11161   11161   11162   11161   11163   11161   11164
   11164   11165   11164   11166   11164   11167   11167   11168
   11169   11170   11169   11171   11169   11172   11169   11173
   11173   11174   11173   11183   11174   11175   11174   11176
   11174   11177   11177   11178   11177   11179   11177   11180
   11180   11181   11180   11182   11180   11183   11183   11184
   11185   11186   11185   11187   11185   11188   11185   11189
   11189   11190   11189   11199   11190   11191   11190   11192
   11190   11193   11193   11194   11193   11195   11193   11196
   11196   11197   11196   11198   11196   11199   11199   11200
   11201   11202   11201   11203   11201   11204   11201   11205
   11205   11206   11205   11215   11206   11207   11206   11208
   11206   11209   11209   11210   11209   11211   11209   11212
   11212   11213   11212   11214   11212   11215   11215   11216
   11217   11218   11217   11219   11217   11220   11217   11221
   11221   11222   11221   11231   11222   11223   11222   11224
   11222   11225   11225   11226   11225   11227   11225   11228
   11228   11229   11228   11230   11228   11231   11231   11232
   11233   11234   11233   11235   11233   11236   11233   11237
   11237   11238   11237   11247   11238   11239   11238   11240
   11238   11241   11241   11242   11241   11243   11241   11244
   11244   11245   11244   11246   11244   11247   11247   11248
   11249   11250   11249   11251   11249   11252   11249   11253
   11253   11254   11253   11263   11254   11255   11254   11256
   11254   11257   11257   11258   11257   11259   11257   11260
   11260   11261   11260   11262   11260   11263   11263   11264
   11265   11266   11265   11267   11265   11268   11265   11269
   11269   11270   11269   11279   11270   11271   11270   11272
   11270   11273   11273   11274   11273   11275   11273   11276
   11276   11277   11276   11278   11276   11279   11279   11280
   11281   11282   11281   11283   11281   11284   11281   11285
   11285   11286   11285   11295   11286   11287   11286   11288
   11286   11289   11289   11290   11289   11291   11289   11292
   11292   11293   11292   11294   11292   11295   11295   11296
   11297   11298   11297   11299   11297   11300   11297   11301
   11301   11302   11301   11311   11302   11303   11302   11304
   11302   11305   11305   11306   11305   11307   11305   11308
   11308   11309   11308   11310   11308   11311   11311   11312
   11313   11314   11313   11315   11313   11316   11313   11317
   11317   11318   11317   11327   11318   11319   11318   11320
   11318   11321   11321   11322   11321   11323   11321   11324
   11324   11325   11324   11326   11324   11327   11327   11328
   11329   11330   11329   11331   11329   11332   11329   11333
   11333   11334   11333   11343   11334   11335   11334   11336
   11334   11337   11337   11338   11337   11339   11337   11340
   11340   11341   11340   11342   11340   11343   11343   11344
   11345   11346   11345   11347   11345   11348   11345   11349
   11349   11350   11349   11359   11350   11351   11350   11352
   11350   11353   11353   11354   11353   11355   11353   11356
   11356   11357   11356   11358   11356   11359   11359   11360
   11361   11362   11361   11363   11361   11364   11361   11365
   11365   11366   11365   11375   11366   11367   11366   11368
   11366   11369   11369   11370   11369   11371   11369   11372
   11372   11373   11372   11374   11372   11375   11375   11376
   11377   11378   11377   11379   11377   11380   11377   11381
   11381   11382   11381   11391   11382   11383   11382   11384
   11382   11385   11385   11386   11385   11387   11385   11388
   11388   11389   11388   11390   11388   11391   11391   11392
   11393   11394   11393   11395   11393   11396   11393   11397
   11397   11398   11397   11407   11398   11399   11398   11400
   11398   11401   11401   11402   11401   11403   11401   11404
   11404   11405   11404   11406   11404   11407   11407   11408
   11409   11410   11409   11411   11409   11412   11409   11413
   11413   11414   11413   11423   11414   11415   11414   11416
   11414   11417   11417   11418   11417   11419   11417   11420
   11420   11421   11420   11422   11420   11423   11423   11424
   11425   11426   11425   11427   11425   11428   11425   11429
   11429   11430   11429   11439   11430   11431   11430   11432
   11430   11433   11433   11434   11433   11435   11433   11436
   11436   11437   11436   11438   11436   11439   11439   11440
   11441   11442   11441   11443   11441   11444   11441   11445
   11445   11446   11445   11455   11446   11447   11446   11448
   11446   11449   11449   11450   11449   11451   11449   11452
   11452   11453   11452   11454   11452   11455   11455   11456
   11457   11458   11457   11459   11457   11460   11457   11461
   11461   11462   11461   11471   11462   11463   11462   11464
   11462   11465   11465   11466   11465   11467   11465   11468
   11468   11469   11468   11470   11468   11471   11471   11472
   11473   11474   11473   11475   11473   11476   11473   11477
   11477   11478   11477   11487   11478   11479   11478   11480
   11478   11481   11481   11482   11481   11483   11481   11484
   11484   11485   11484   11486   11484   11487   11487   11488
   11489   11490   11489   11491   11489   11492   11489   11493
   11493   11494   11493   11503   11494   11495   11494   11496
   11494   11497   11497   11498   11497   11499   11497   11500
   11500   11501   11500   11502   11500   11503   11503   11504
   11505   11506   11505   11507   11505   11508   11505   11509
   11509   11510   11509   11519   11510   11511   11510   11512
   11510   11513   11513   11514   11513   11515   11513   11516
   11516   11517   11516   11518   11516   11519   11519   11520
   11521   11522   11521   11523   11521   11524   11521   11525
   11525   11526   11525   11535   11526   11527   11526   11528
   11526   11529   11529   11530   11529   11531   11529   11532
   11532   11533   11532   11534   11532   11535   11535   11536
   11537   11538   11537   11539   11537   11540   11537   11541
   11541   11542   11541   11551   11542   11543   11542   11544
   11542   11545   11545   11546   11545   11547   11545   11548
   11548   11549   11548   11550   11548   11551   11551   11552
   11553   11554   11553   11555   11553   11556   11553   11557
   11557   11558   11557   11567   11558   11559   11558   11560
   11558   11561   11561   11562   11561   11563   11561   11564
   11564   11565   11564   11566   11564   11567   11567   11568
   11569   11570   11569   11571   11569   11572   11569   11573
   11573   11574   11573   11583   11574   11575   11574   11576
   11574   11577   11577   11578   11577   11579   11577   11580
   11580   11581   11580   11582   11580   11583   11583   11584
   11585   11586   11585   11587   11585   11588   11585   11589
   11589   11590   11589   11599   11590   11591   11590   11592
   11590   11593   11593   11594   11593   11595   11593   11596
   11596   11597   11596   11598   11596   11599   11599   11600
   11601   11602   11601   11603   11601   11604   11601   11605
   11605   11606   11605   11615   11606   11607   11606   11608
   11606   11609   11609   11610   11609   11611   11609   11612
   11612   11613   11612   11614   11612   11615   11615   11616
   11617   11618   11617   11619   11617   11620   11617   11621
   11621   11622   11621   11631   11622   11623   11622   11624
   11622   11625   11625   11626   11625   11627   11625   11628
   11628   11629   11628   11630   11628   11631   11631   11632
   11633   11634   11633   11635   11633   11636   11633   11637
   11637   11638   11637   11647   11638   11639   11638   11640
   11638   11641   11641   11642   11641   11643   11641   11644
   11644   11645   11644   11646   11644   11647   11647   11648
   11649   11650   11649   11651   11649   11652   11649   11653
   11653   11654   11653   11663   11654   11655   11654   11656
   11654   11657   11657   11658   11657   11659   11657   11660
   11660   11661   11660   11662   11660   11663   11663   11664
   11665   11666   11665   11667   11665   11668   11665   11669
   11669   11670   11669   11679   11670   11671   11670   11672
   11670   11673   11673   11674   11673   11675   11673   11676
   11676   11677   11676   11678   11676   11679   11679   11680
   11681   11682   11681   11683   11681   11684   11681   11685
   11685   11686   11685   11695   11686   11687   11686   11688
   11686   11689   11689   11690   11689   11691   11689   11692
   11692   11693   11692   11694   11692   11695   11695   11696
   11697   11698   11697   11699   11697   11700   11697   11701
   11701   11702   11701   11711   11702   11703   11702   11704
   11702   11705   11705   11706   11705   11707   11705   11708
   11708   11709   11708   11710   11708   11711   11711   11712
   11713   11714   11713   11715   11713   11716   11713   11717
   11717   11718   11717   11727   11718   11719   11718   11720
   11718   11721   11721   11722   11721   11723   11721   11724
   11724   11725   11724   11726   11724   11727   11727   11728
   11729   11730   11729   11731   11729   11732   11729   11733
   11733   11734   11733   11743   11734   11735   11734   11736
   11734   11737   11737   11738   11737   11739   11737   11740
   11740   11741   11740   11742   11740   11743   11743   11744
   11745   11746   11745   11747   11745   11748   11745   11749
   11749   11750   11749   11759   11750   11751   11750   11752
   11750   11753   11753   11754   11753   11755   11753   11756
   11756   11757   11756   11758   11756   11759   11759   11760
   11761   11762   11761   11763   11761   11764   11761   11765
   11765   11766   11765   11775   11766   11767   11766   11768
   11766   11769   11769   11770   11769   11771   11769   11772
   11772   11773   11772   11774   11772   11775   11775   11776
   11777   11778   11777   11779   11777   11780   11777   11781
   11781   11782   11781   11791   11782   11783   11782   11784
   11782   11785   11785   11786   11785   11787   11785   11788
   11788   11789   11788   11790   11788   11791   11791   11792
   11793   11794   11793   11795   11793   11796   11793   11797
   11797   11798   11797   11807   11798   11799   11798   11800
   11798   11801   11801   11802   11801   11803   11801   11804
   11804   11805   11804   11806   11804   11807   11807   11808
   11809   11810   11809   11811   11809   11812   11809   11813
   11813   11814   11813   11823   11814   11815   11814   11816
   11814   11817   11817   11818   11817   11819   11817   11820
   11820   11821   11820   11822   11820   11823   11823   11824
   11825   11826   11825   11827   11825   11828   11825   11829
   11829   11830   11829   11839   11830   11831   11830   11832
   11830   11833   11833   11834   11833   11835   11833   11836
   11836   11837   11836   11838   11836   11839   11839   11840
   11841   11842   11841   11843   11841   11844   11841   11845
   11845   11846   11845   11855   11846   11847   11846   11848
   11846   11849   11849   11850   11849   11851   11849   11852
   11852   11853   11852   11854   11852   11855   11855   11856
   11857   11858   11857   11859   11857   11860   11857   11861
   11861   11862   11861   11871   11862   11863   11862   11864
   11862   11865   11865   11866   11865   11867   11865   11868
   11868   11869   11868   11870   11868   11871   11871   11872
   11873   11874   11873   11875   11873   11876   11873   11877
   11877   11878   11877   11887   11878   11879   11878   11880
   11878   11881   11881   11882   11881   11883   11881   11884
   11884   11885   11884   11886   11884   11887   11887   11888
   11889   11890   11889   11891   11889   11892   11889   11893
   11893   11894   11893   11903   11894   11895   11894   11896
   11894   11897   11897   11898   11897   11899   11897   11900
   11900   11901   11900   11902   11900   11903   11903   11904
   11905   11906   11905   11907   11905   11908   11905   11909
   11909   11910   11909   11919   11910   11911   11910   11912
   11910   11913   11913   11914   11913   11915   11913   11916
   11916   11917   11916   11918   11916   11919   11919   11920
   11921   11922   11921   11923   11921   11924   11921   11925
   11925   11926   11925   11935   11926   11927   11926   11928
   11926   11929   11929   11930   11929   11931   11929   11932
   11932   11933   11932   11934   11932   11935   11935   11936
   11937   11938   11937   11939   11937   11940   11937   11941
   11941   11942   11941   11951   11942   11943   11942   11944
   11942   11945   11945   11946   11945   11947   11945   11948
   11948   11949   11948   11950   11948   11951   11951   11952
   11953   11954   11953   11955   11953   11956   11953   11957
   11957   11958   11957   11967   11958   11959   11958   11960
   11958   11961   11961   11962   11961   11963   11961   11964
   11964   11965   11964   11966   11964   11967   11967   11968
   11969   11970   11969   11971   11969   11972   11969   11973
   11973   11974   11973   11983   11974   11975   11974   11976
   11974   11977   11977   11978   11977   11979   11977   11980
   11980   11981   11980   11982   11980   11983   11983   11984
   11985   11986   11985   11987   11985   11988   11985   11989
   11989   11990   11989   11999   11990   11991   11990   11992
   11990   11993   11993   11994   11993   11995   11993   11996
   11996   11997   11996   11998   11996   11999   11999   12000
   12001   12002   12001   12003   12001   12004   12001   12005
   12005   12006   12005   12015   12006   12007   12006   12008
   12006   12009   12009   12010   12009   12011   12009   12012
   12012   12013   12012   12014   12012   12015   12015   12016
   12017   12018   12017   12019   12017   12020   12017   12021
   12021   12022   12021   12031   12022   12023   12022   12024
   12022   12025   12025   12026   12025   12027   12025   12028
   12028   12029   12028   12030   12028   12031   12031   12032
   12033   12034   12033   12035   12033   12036   12033   12037
   12037   12038   12037   12047   12038   12039   12038   12040
   12038   12041   12041   12042   12041   12043   12041   12044
   12044   12045   12044   12046   12044   12047   12047   12048
   12049   12050   12049   12051   12049   12052   12049   12053
   12053   12054   12053   12063   12054   12055   12054   12056
   12054   12057   12057   12058   12057   12059   12057   12060
   12060   12061   12060   12062   12060   12063   12063   12064
   12065   12066   12065   12067   12065   12068   12065   12069
   12069   12070   12069   12079   12070   12071   12070   12072
   12070   12073   12073   12074   12073   12075   12073   12076
   12076   12077   12076   12078   12076   12079   12079   12080
   12081   12082   12081   12083   12081   12084   12081   12085
   12085   12086   12085   12095   12086   12087   12086   12088
   12086   12089   12089   12090   12089   12091   12089   12092
   12092   12093   12092   12094   12092   12095   12095   12096
   12097   12098   12097   12099   12097   12100   12097   12101
   12101   12102   12101   12111   12102   12103   12102   12104
   12102   12105   12105   12106   12105   12107   12105   12108
   12108   12109   12108   12110   12108   12111   12111   12112
   12113   12114   12113   12115   12113   12116   12113   12117
   12117   12118   12117   12127   12118   12119   12118   12120
   12118   12121   12121   12122   12121   12123   12121   12124
   12124   12125   12124   12126   12124   12127   12127   12128
   12129   12130   12129   12131   12129   12132   12129   12133
   12133   12134   12133   12143   12134   12135   12134   12136
   12134   12137   12137   12138   12137   12139   12137   12140
   12140   12141   12140   12142   12140   12143   12143   12144
   12145   12146   12145   12147   12145   12148   12145   12149
   12149   12150   12149   12159   12150   12151   12150   12152
   12150   12153   12153   12154   12153   12155   12153   12156
   12156   12157   12156   12158   12156   12159   12159   12160
   12161   12162   12161   12163   12161   12164   12161   12165
   12165   12166   12165   12175   12166   12167   12166   12168
   12166   12169   12169   12170   12169   12171   12169   12172
   12172   12173   12172   12174   12172   12175   12175   12176
   12177   12178   12177   12179   12177   12180   12177   12181
   12181   12182   12181   12191   12182   12183   12182   12184
   12182   12185   12185   12186   12185   12187   12185   12188
   12188   12189   12188   12190   12188   12191   12191   12192
   12193   12194   12193   12195   12193   12196   12193   12197
   12197   12198   12197   12207   12198   12199   12198   12200
   12198   12201   12201   12202   12201   12203   12201   12204
   12204   12205   12204   12206   12204   12207   12207   12208
   12209   12210   12209   12211   12209   12212   12209   12213
   12213   12214   12213   12223   12214   12215   12214   12216
   12214   12217   12217   12218   12217   12219   12217   12220
   12220   12221   12220   12222   12220   12223   12223   12224
   12225   12226   12225   12227   12225   12228   12225   12229
   12229   12230   12229   12239   12230   12231   12230   12232
   12230   12233   12233   12234   12233   12235   12233   12236
   12236   12237   12236   12238   12236   12239   12239   12240
   12241   12242   12241   12243   12241   12244   12241   12245
   12245   12246   12245   12255   12246   12247   12246   12248
   12246   12249   12249   12250   12249   12251   12249   12252
   12252   12253   12252   12254   12252   12255   12255   12256
   12257   12258   12257   12259   12257   12260   12257   12261
   12261   12262   12261   12271   12262   12263   12262   12264
   12262   12265   12265   12266   12265   12267   12265   12268
   12268   12269   12268   12270   12268   12271   12271   12272
   12273   12274   12273   12275   12273   12276   12273   12277
   12277   12278   12277   12287   12278   12279   12278   12280
   12278   12281   12281   12282   12281   12283   12281   12284
   12284   12285   12284   12286   12284   12287   12287   12288
   12289   12290   12289   12291   12289   12292   12289   12293
   12293   12294   12293   12303   12294   12295   12294   12296
   12294   12297   12297   12298   12297   12299   12297   12300
   12300   12301   12300   12302   12300   12303   12303   12304
   12305   12306   12305   12307   12305   12308   12305   12309
   12309   12310   12309   12319   12310   12311   12310   12312
   12310   12313   12313   12314   12313   12315   12313   12316
   12316   12317   12316   12318   12316   12319   12319   12320
   12321   12322   12321   12323   12321   12324   12321   12325
   12325   12326   12325   12335   12326   12327   12326   12328
   12326   12329   12329   12330   12329   12331   12329   12332
   12332   12333   12332   12334   12332   12335   12335   12336
   12337   12338   12337   12339   12337   12340   12337   12341
   12341   12342   12341   12351   12342   12343   12342   12344
   12342   12345   12345   12346   12345   12347   12345   12348
   12348   12349   12348   12350   12348   12351   12351   12352
   12353   12354   12353   12355   12353   12356   12353   12357
   12357   12358   12357   12367   12358   12359   12358   12360
   12358   12361   12361   12362   12361   12363   12361   12364
   12364   12365   12364   12366   12364   12367   12367   12368
   12369   12370   12369   12371   12369   12372   12369   12373
   12373   12374   12373   12383   12374   12375   12374   12376
   12374   12377   12377   12378   12377   12379   12377   12380
   12380   12381   12380   12382   12380   12383   12383   12384
   12385   12386   12385   12387   12385   12388   12385   12389
   12389   12390   12389   12399   12390   12391   12390   12392
   12390   12393   12393   12394   12393   12395   12393   12396
   12396   12397   12396   12398   12396   12399   12399   12400
   12401   12402   12401   12403   12401   12404   12401   12405
   12405   12406   12405   12415   12406   12407   12406   12408
   12406   12409   12409   12410   12409   12411   12409   12412
   12412   12413   12412   12414   12412   12415   12415   12416
   12417   12418   12417   12419   12417   12420   12417   12421
   12421   12422   12421   12431   12422   12423   12422   12424
   12422   12425   12425   12426   12425   12427   12425   12428
   12428   12429   12428   12430   12428   12431   12431   12432
   12433   12434   12433   12435   12433   12436   12433   12437
   12437   12438   12437   12447   12438   12439   12438   12440
   12438   12441   12441   12442   12441   12443   12441   12444
   12444   12445   12444   12446   12444   12447   12447   12448
   12449   12450   12449   12451   12449   12452   12449   12453
   12453   12454   12453   12463   12454   12455   12454   12456
   12454   12457   12457   12458   12457   12459   12457   12460
   12460   12461   12460   12462   12460   12463   12463   12464
   12465   12466   12465   12467   12465   12468   12465   12469
   12469   12470   12469   12479   12470   12471   12470   12472
   12470   12473   12473   12474   12473   12475   12473   12476
   12476   12477   12476   12478   12476   12479   12479   12480
   12481   12482   12481   12483   12481   12484   12481   12485
   12485   12486   12485   12495   12486   12487   12486   12488
   12486   12489   12489   12490   12489   12491   12489   12492
   12492   12493   12492   12494   12492   12495   12495   12496
   12497   12498   12497   12499   12497   12500   12497   12501
   12501   12502   12501   12511   12502   12503   12502   12504
   12502   12505   12505   12506   12505   12507   12505   12508
   12508   12509   12508   12510   12508   12511   12511   12512
   12513   12514   12513   12515   12513   12516   12513   12517
   12517   12518   12517   12527   12518   12519   12518   12520
   12518   12521   12521   12522   12521   12523   12521   12524
   12524   12525   12524   12526   12524   12527   12527   12528
   12529   12530   12529   12531   12529   12532   12529   12533
   12533   12534   12533   12543   12534   12535   12534   12536
   12534   12537   12537   12538   12537   12539   12537   12540
   12540   12541   12540   12542   12540   12543   12543   12544
   12545   12546   12545   12547   12545   12548   12545   12549
   12549   12550   12549   12559   12550   12551   12550   12552
   12550   12553   12553   12554   12553   12555   12553   12556
   12556   12557   12556   12558   12556   12559   12559   12560
   12561   12562   12561   12563   12561   12564   12561   12565
   12565   12566   12565   12575   12566   12567   12566   12568
   12566   12569   12569   12570   12569   12571   12569   12572
   12572   12573   12572   12574   12572   12575   12575   12576
   12577   12578   12577   12579   12577   12580   12577   12581
   12581   12582   12581   12591   12582   12583   12582   12584
   12582   12585   12585   12586   12585   12587   12585   12588
   12588   12589   12588   12590   12588   12591   12591   12592
   12593   12594   12593   12595   12593   12596   12593   12597
   12597   12598   12597   12607   12598   12599   12598   12600
   12598   12601   12601   12602   12601   12603   12601   12604
   12604   12605   12604   12606   12604   12607   12607   12608
   12609   12610   12609   12611   12609   12612   12609   12613
   12613   12614   12613   12623   12614   12615   12614   12616
   12614   12617   12617   12618   12617   12619   12617   12620
   12620   12621   12620   12622   12620   12623   12623   12624
   12625   12626   12625   12627   12625   12628   12625   12629
   12629   12630   12629   12639   12630   12631   12630   12632
   12630   12633   12633   12634   12633   12635   12633   12636
   12636   12637   12636   12638   12636   12639   12639   12640
   12641   12642   12641   12643   12641   12644   12641   12645
   12645   12646   12645   12655   12646   12647   12646   12648
   12646   12649   12649   12650   12649   12651   12649   12652
   12652   12653   12652   12654   12652   12655   12655   12656
   12657   12658   12657   12659   12657   12660   12657   12661
   12661   12662   12661   12671   12662   12663   12662   12664
   12662   12665   12665   12666   12665   12667   12665   12668
   12668   12669   12668   12670   12668   12671   12671   12672
   12673   12674   12673   12675   12673   12676   12673   12677
   12677   12678   12677   12687   12678   12679   12678   12680
   12678   12681   12681   12682   12681   12683   12681   12684
   12684   12685   12684   12686   12684   12687   12687   12688
   12689   12690   12689   12691   12689   12692   12689   12693
   12693   12694   12693   12703   12694   12695   12694   12696
   12694   12697   12697   12698   12697   12699   12697   12700
   12700   12701   12700   12702   12700   12703   12703   12704
   12705   12706   12705   12707   12705   12708   12705   12709
   12709   12710   12709   12719   12710   12711   12710   12712
   12710   12713   12713   12714   12713   12715   12713   12716
   12716   12717   12716   12718   12716   12719   12719   12720
   12721   12722   12721   12723   12721   12724   12721   12725
   12725   12726   12725   12735   12726   12727   12726   12728
   12726   12729   12729   12730   12729   12731   12729   12732
   12732   12733   12732   12734   12732   12735   12735   12736
   12737   12738   12737   12739   12737   12740   12737   12741
   12741   12742   12741   12751   12742   12743   12742   12744
   12742   12745   12745   12746   12745   12747   12745   12748
   12748   12749   12748   12750   12748   12751   12751   12752
   12753   12754   12753   12755   12753   12756   12753   12757
   12757   12758   12757   12767   12758   12759   12758   12760
   12758   12761   12761   12762   12761   12763   12761   12764
   12764   12765   12764   12766   12764   12767   12767   12768
   12769   12770   12769   12771   12769   12772   12769   12773
   12773   12774   12773   12783   12774   12775   12774   12776
   12774   12777   12777   12778   12777   12779   12777   12780
   12780   12781   12780   12782   12780   12783   12783   12784
   12785   12786   12785   12787   12785   12788   12785   12789
   12789   12790   12789   12799   12790   12791   12790   12792
   12790   12793   12793   12794   12793   12795   12793   12796
   12796   12797   12796   12798   12796   12799   12799   12800

   24000 !NTHETA: angles
       1       5       6       1       5      15       2       1       3
       2       1       4       2       1       5       3       1       4
       3       1       5       4       1       5       5       6       7
       5       6       8       5       6       9       5      15      12
       5      15      16       6       5      15       6       9      10
       6       9      11       6       9      12       7       6       8
       7       6       9       8       6       9       9      12      13
       9      12      14       9      12      15      10       9      11
      10       9      12      11       9      12      12      15      16
      13      12      14      13      12      15      14      12      15
      17      21      22      17      21      31      18      17      19
      18      17      20      18      17      21      19      17      20
      19      17      21      20      17      21      21      22      23
      21      22      24      21      22      25      21      31      28
      21      31      32      22      21      31      22      25      26
      22      25      27      22      25      28      23      22      24
      23      22      25      24      22      25      25      28      29
      25      28      30      25      28      31      26      25      27
      26      25      28      27      25      28      28      31      32
      29      28      30      29      28      31      30      28      31
      33      37      38      33      37      47      34      33      35
      34      33      36      34      33      37      35      33      36
      35      33      37      36      33      37      37      38      39
      37      38      40      37      38      41      37      47      44
      37      47      48      38      37      47      38      41      42
      38      41      43      38      41      44      39      38      40
      39      38      41      40      38      41      41      44      45
      41      44      46      41      44      47      42      41      43
      42      41      44      43      41      44      44      47      48
      45      44      46      45      44      47      46      44      47
      49      53      54      49      53      63      50      49      51
      50      49      52      50      49      53      51      49      52
      51      49      53      52      49      53      53      54      55
      53      54      56      53      54      57      53      63      60
      53      63      64      54      53      63      54      57      58
      54      57      59      54      57      60      55      54      56
      55      54      57      56      54      57      57      60      61
      57      60      62      57      60      63      58      57      59
      58      57      60      59      57      60      60      63      64
      61      60      62      61      60      63      62      60      63
      65      69      70      65      69      79      66      65      67
      66      65      68      66      65      69      67      65      68
      67      65      69      68      65      69      69      70      71
      69      70      72      69      70      73      69      79      76
      69      79      80      70      69      79      70      73      74
      70      73      75      70      73      76      71      70      72
      71      70      73      72      70      73      73      76      77
      73      76      78      73      76      79      74      73      75
      74      73      76      75      73      76      76      79      80
      77      76      78      77      76      79      78      76      79
      81      85      86      81      85      95      82      81      83
      82      81      84      82      81      85      83      81      84
      83      81      85      84      81      85      85      86      87
      85      86      88      85      86      89      85      95      92
      85      95      96      86      85      95      86      89      90
      86      89      91      86      89      92      87      86      88
      87      86      89      88      86      89      89      92      93
      89      92      94      89      92      95      90      89      91
      90      89      92      91      89      92      92      95      96
      93      92      94      93      92      95      94      92      95
      97     101     102      97     101     111      98      97      99
      98      97     100      98      97     101      99      97     100
      99      97     101     100      97     101     101     102     103
     101     102     104     101     102     105     101     111     108
     101     111     112     102     101     111     102     105     106
     102     105     107     102     105     108     103     102     104
     103     102     105     104     102     105     105     108     109
     105     108     110     105     108     111     106     105     107
     106     105     108     107     105     108     108     111     112
     109     108     110     109     108     111     110     108     111
     113     117     118     113     117     127     114     113     115
     114     113     116     114     113     117     115     113     116
     115     113     117     116     113     117     117     118     119
     117     118     120     117     118     121     117     127     124
     117     127     128     118     117     127     118     121     122
     118     121     123     118     121     124     119     118     120
     119     118     121     120     118     121     121     124     125
     121     124     126     121     124     127     122     121     123
     122     121     124     123     121     124     124     127     128
     125     124     126     125     124     127     126     124     127
     129     133     134     129     133     143     130     129     131
     130     129     132     130     129     133     131     129     132
     131     129     133     132     129     133     133     134     135
     133     134     136     133     134     137     133     143     140
     133     143     144     134     133     143     134     137     138
     134     137     139     134     137     140     135     134     136
     135     134     137     136     134     137     137     140     141
     137     140     142     137     140     143     138     137     139
     138     137     140     139     137     140     140     143     144
     141     140     142     141     140     143     142     140     143
     145     149     150     145     149     159     146     145     147
     146     145     148     146     145     149     147     145     148
     147     145     149     148     145     149     149     150     151
     149     150     152     149     150     153     149     159     156
     149     159     160     150     149     159     150     153     154
     150     153     155     150     153     156     151     150     152
     151     150     153     152     150     153     153     156     157
     153     156     158     153     156     159     154     153     155
     154     153     156     155     153     156     156     159     160
     157     156     158     157     156     159     158     156     159
     161     165     166     161     165     175     162     161     163
     162     161     164     162     161     165     163     161     164
     163     161     165     164     161     165     165     166     167
     165     166     168     165     166     169     165     175     172
     165     175     176     166     165     175     166     169     170
     166     169     171     166     169     172     167     166     168
     167     166     169     168     166     169     169     172     173
     169     172     174     169     172     175     170     169     171
     170     169     172     171     169     172     172     175     176
     173     172     174     173     172     175     174     172     175
     177     181     182     177     181     191     178     177     179
     178     177     180     178     177     181     179     177     180
     179     177     181     180     177     181     181     182     183
     181     182     184     181     182     185     181     191     188
     181     191     192     182     181     191     182     185     186
     182     185     187     182     185     188     183     182     184
     183     182     185     184     182     185     185     188     189
     185     188     190     185     188     191     186     185     187
     186     185     188     187     185     188     188     191     192
     189     188     190     189     188     191     190     188     191
     193     197     198     193     197     207     194     193     195
     194     193     196     194     193     197     195     193     196
     195     193     197     196     193     197     197     198     199
     197     198     200     197     198     201     197     207     204
     197     207     208     198     197     207     198     201     202
     198     201     203     198     201     204     199     198     200
     199     198     201     200     198     201     201     204     205
     201     204     206     201     204     207     202     201     203
     202     201     204     203     201     204     204     207     208
     205     204     206     205     204     207     206     204     207
     209     213     214     209     213     223     210     209     211
     210     209     212     210     209     213     211     209     212
     211     209     213     212     209     213     213     214     215
     213     214     216     213     214     217     213     223     220
     213     223     224     214     213     223     214     217     218
     214     217     219     214     217     220     215     214     216
     215     214     217     216     214     217     217     220     221
     217     220     222     217     220     223     218     217     219
     218     217     220     219     217     220     220     223     224
     221     220     222     221     220     223     222     220     223
     225     229     230     225     229     239     226     225     227
     226     225     228     226     225     229     227     225     228
     227     225     229     228     225     229     229     230     231
     229     230     232     229     230     233     229     239     236
     229     239     240     230     229     239     230     233     234
     230     233     235     230     233     236     231     230     232
     231     230     233     232     230     233     233     236     237
     233     236     238     233     236     239     234     233     235
     234     233     236     235     233     236     236     239     240
     237     236     238     237     236     239     238     236     239
     241     245     246     241     245     255     242     241     243
     242     241     244     242     241     245     243     241     244
     243     241     245     244     241     245     245     246     247
     245     246     248     245     246     249     245     255     252
     245     255     256     246     245     255     246     249     250
     246     249     251     246     249     252     247     246     248
     247     246     249     248     246     249     249     252     253
     249     252     254     249     252     255     250     249     251
     250     249     252     251     249     252     252     255     256
     253     252     254     253     252     255     254     252     255
     257     261     262     257     261     271     258     257     259
     258     257     260     258     257     261     259     257     260
     259     257     261     260     257     261     261     262     263
     261     262     264     261     262     265     261     271     268
     261     271     272     262     261     271     262     265     266
     262     265     267     262     265     268     263     262     264
     263     262     265     264     262     265     265     268     269
     265     268     270     265     268     271     266     265     267
     266     265     268     267     265     268     268     271     272
     269     268     270     269     268     271     270     268     271
     273     277     278     273     277     287     274     273     275
     274     273     276     274     273     277     275     273     276
     275     273     277     276     273     277     277     278     279
     277     278     280     277     278     281     277     287     284
     277     287     288     278     277     287     278     281     282
     278     281     283     278     281     284     279     278     280
     279     278     281     280     278     281     281     284     285
     281     284     286     281     284     287     282     281     283
     282     281     284     283     281     284     284     287     288
     285     284     286     285     284     287     286     284     287
     289     293     294     289     293     303     290     289     291
     290     289     292     290     289     293     291     289     292
     291     289     293     292     289     293     293     294     295
     293     294     296     293     294     297     293     303     300
     293     303     304     294     293     303     294     297     298
     294     297     299     294     297     300     295     294     296
     295     294     297     296     294     297     297     300     301
     297     300     302     297     300     303     298     297     299
     298     297     300     299     297     300     300     303     304
     301     300     302     301     300     303     302     300     303
     305     309     310     305     309     319     306     305     307
     306     305     308     306     305     309     307     305     308
     307     305     309     308     305     309     309     310     311
     309     310     312     309     310     313     309     319     316
     309     319     320     310     309     319     310     313     314
     310     313     315     310     313     316     311     310     312
     311     310     313     312     310     313     313     316     317
     313     316     318     313     316     319     314     313     315
     314     313     316     315     313     316     316     319     320
     317     316     318     317     316     319     318     316     319
     321     325     326     321     325     335     322     321     323
     322     321     324     322     321     325     323     321     324
     323     321     325     324     321     325     325     326     327
     325     326     328     325     326     329     325     335     332
     325     335     336     326     325     335     326     329     330
     326     329     331     326     329     332     327     326     328
     327     326     329     328     326     329     329     332     333
     329     332     334     329     332     335     330     329     331
     330     329     332     331     329     332     332     335     336
     333     332     334     333     332     335     334     332     335
     337     341     342     337     341     351     338     337     339
     338     337     340     338     337     341     339     337     340
     339     337     341     340     337     341     341     342     343
     341     342     344     341     342     345     341     351     348
     341     351     352     342     341     351     342     345     346
     342     345     347     342     345     348     343     342     344
     343     342     345     344     342     345     345     348     349
     345     348     350     345     348     351     346     345     347
     346     345     348     347     345     348     348     351     352
     349     348     350     349     348     351     350     348     351
     353     357     358     353     357     367     354     353     355
     354     353     356     354     353     357     355     353     356
     355     353     357     356     353     357     357     358     359
     357     358     360     357     358     361     357     367     364
     357     367     368     358     357     367     358     361     362
     358     361     363     358     361     364     359     358     360
     359     358     361     360     358     361     361     364     365
     361     364     366     361     364     367     362     361     363
     362     361     364     363     361     364     364     367     368
     365     364     366     365     364     367     366     364     367
     369     373     374     369     373     383     370     369     371
     370     369     372     370     369     373     371     369     372
     371     369     373     372     369     373     373     374     375
     373     374     376     373     374     377     373     383     380
     373     383     384     374     373     383     374     377     378
     374     377     379     374     377     380     375     374     376
     375     374     377     376     374     377     377     380     381
     377     380     382     377     380     383     378     377     379
     378     377     380     379     377     380     380     383     384
     381     380     382     381     380     383     382     380     383
     385     389     390     385     389     399     386     385     387
     386     385     388     386     385     389     387     385     388
     387     385     389     388     385     389     389     390     391
     389     390     392     389     390     393     389     399     396
     389     399     400     390     389     399     390     393     394
     390     393     395     390     393     396     391     390     392
     391     390     393     392     390     393     393     396     397
     393     396     398     393     396     399     394     393     395
     394     393     396     395     393     396     396     399     400
     397     396     398     397     396     399     398     396     399
     401     405     406     401     405     415     402     401     403
     402     401     404     402     401     405     403     401     404
     403     401     405     404     401     405     405     406     407
     405     406     408     405     406     409     405     415     412
     405     415     416     406     405     415     406     409     410
     406     409     411     406     409     412     407     406     408
     407     406     409     408     406     409     409     412     413
     409     412     414     409     412     415     410     409     411
     410     409     412     411     409     412     412     415     416
     413     412     414     413     412     415     414     412     415
     417     421     422     417     421     431     418     417     419
     418     417     420     418     417     421     419     417     420
     419     417     421     420     417     421     421     422     423
     421     422     424     421     422     425     421     431     428
     421     431     432     422     421     431     422     425     426
     422     425     427     422     425     428     423     422     424
     423     422     425     424     422     425     425     428     429
     425     428     430     425     428     431     426     425     427
     426     425     428     427     425     428     428     431     432
     429     428     430     429     428     431     430     428     431
     433     437     438     433     437     447     434     433     435
     434     433     436     434     433     437     435     433     436
     435     433     437     436     433     437     437     438     439
     437     438     440     437     438     441     437     447     444
     437     447     448     438     437     447     438     441     442
     438     441     443     438     441     444     439     438     440
     439     438     441     440     438     441     441     444     445
     441     444     446     441     444     447     442     441     443
     442     441     444     443     441     444     444     447     448
     445     444     446     445     444     447     446     444     447
     449     453     454     449     453     463     450     449     451
     450     449     452     450     449     453     451     449     452
     451     449     453     452     449     453     453     454     455
     453     454     456     453     454     457     453     463     460
     453     463     464     454     453     463     454     457     458
     454     457     459     454     457     460     455     454     456
     455     454     457     456     454     457     457     460     461
     457     460     462     457     460     463     458     457     459
     458     457     460     459     457     460     460     463     464
     461     460     462     461     460     463     462     460     463
     465     469     470     465     469     479     466     465     467
     466     465     468     466     465     469     467     465     468
     467     465     469     468     465     469     469     470     471
     469     470     472     469     470     473     469     479     476
     469     479     480     470     469     479     470     473     474
     470     473     475     470     473     476     471     470     472
     471     470     473     472     470     473     473     476     477
     473     476     478     473     476     479     474     473     475
     474     473     476     475     473     476     476     479     480
     477     476     478     477     476     479     478     476     479
     481     485     486     481     485     495     482     481     483
     482     481     484     482     481     485     483     481     484
     483     481     485     484     481     485     485     486     487
     485     486     488     485     486     489     485     495     492
     485     495     496     486     485     495     486     489     490
     486     489     491     486     489     492     487     486     488
     487     486     489     488     486     489     489     492     493
     489     492     494     489     492     495     490     489     491
     490     489     492     491     489     492     492     495     496
     493     492     494     493     492     495     494     492     495
     497     501     502     497     501     511     498     497     499
     498     497     500     498     497     501     499     497     500
     499     497     501     500     497     501     501     502     503
     501     502     504     501     502     505     501     511     508
     501     511     512     502     501     511     502     505     506
     502     505     507     502     505     508     503     502     504
     503     502     505     504     502     505     505     508     509
     505     508     510     505     508     511     506     505     507
     506     505     508     507     505     508     508     511     512
     509     508     510     509     508     511     510     508     511
     513     517     518     513     517     527     514     513     515
     514     513     516     514     513     517     515     513     516
     515     513     517     516     513     517     517     518     519
     517     518     520     517     518     521     517     527     524
     517     527     528     518     517     527     518     521     522
     518     521     523     518     521     524     519     518     520
     519     518     521     520     518     521     521     524     525
     521     524     526     521     524     527     522     521     523
     522     521     524     523     521     524     524     527     528
     525     524     526     525     524     527     526     524     527
     529     533     534     529     533     543     530     529     531
     530     529     532     530     529     533     531     529     532
     531     529     533     532     529     533     533     534     535
     533     534     536     533     534     537     533     543     540
     533     543     544     534     533     543     534     537     538
     534     537     539     534     537     540     535     534     536
     535     534     537     536     534     537     537     540     541
     537     540     542     537     540     543     538     537     539
     538     537     540     539     537     540     540     543     544
     541     540     542     541     540     543     542     540     543
     545     549     550     545     549     559     546     545     547
     546     545     548     546     545     549     547     545     548
     547     545     549     548     545     549     549     550     551
     549     550     552     549     550     553     549     559     556
     549     559     560     550     549     559     550     553     554
     550     553     555     550     553     556     551     550     552
     551     550     553     552     550     553     553     556     557
     553     556     558     553     556     559     554     553     555
     554     553     556     555     553     556     556     559     560
     557     556     558     557     556     559     558     556     559
     561     565     566     561     565     575     562     561     563
     562     561     564     562     561     565     563     561     564
     563     561     565     564     561     565     565     566     567
     565     566     568     565     566     569     565     575     572
     565     575     576     566     565     575     566     569     570
     566     569     571     566     569     572     567     566     568
     567     566     569     568     566     569     569     572     573
     569     572     574     569     572     575     570     569     571
     570     569     572     571     569     572     572     575     576
     573     572     574     573     572     575     574     572     575
     577     581     582     577     581     591     578     577     579
     578     577     580     578     577     581     579     577     580
     579     577     581     580     577     581     581     582     583
     581     582     584     581     582     585     581     591     588
     581     591     592     582     581     591     582     585     586
     582     585     587     582     585     588     583     582     584
     583     582     585     584     582     585     585     588     589
     585     588     590     585     588     591     586     585     587
     586     585     588     587     585     588     588     591     592
     589     588     590     589     588     591     590     588     591
     593     597     598     593     597     607     594     593     595
     594     593     596     594     593     597     595     593     596
     595     593     597     596     593     597     597     598     599
     597     598     600     597     598     601     597     607     604
     597     607     608     598     597     607     598     601     602
     598     601     603     598     601     604     599     598     600
     599     598     601     600     598     601     601     604     605
     601     604     606     601     604     607     602     601     603
     602     601     604     603     601     604     604     607     608
     605     604     606     605     604     607     606     604     607
     609     613     614     609     613     623     610     609     611
     610     609     612     610     609     613     611     609     612
     611     609     613     612     609     613     613     614     615
     613     614     616     613     614     617     613     623     620
     613     623     624     614     613     623     614     617     618
     614     617     619     614     617     620     615     614     616
     615     614     617     616     614     617     617     620     621
     617     620     622     617     620     623     618     617     619
     618     617     620     619     617     620     620     623     624
     621     620     622     621     620     623     622     620     623
     625     629     630     625     629     639     626     625     627
     626     625     628     626     625     629     627     625     628
     627     625     629     628     625     629     629     630     631
     629     630     632     629     630     633     629     639     636
     629     639     640     630     629     639     630     633     634
     630     633     635     630     633     636     631     630     632
     631     630     633     632     630     633     633     636     637
     633     636     638     633     636     639     634     633     635
     634     633     636     635     633     636     636     639     640
     637     636     638     637     636     639     638     636     639
     641     645     646     641     645     655     642     641     643
     642     641     644     642     641     645     643     641     644
     643     641     645     644     641     645     645     646     647
     645     646     648     645     646     649     645     655     652
     645     655     656     646     645     655     646     649     650
     646     649     651     646     649     652     647     646     648
     647     646     649     648     646     649     649     652     653
     649     652     654     649     652     655     650     649     651
     650     649     652     651     649     652     652     655     656
     653     652     654     653     652     655     654     652     655
     657     661     662     657     661     671     658     657     659
     658     657     660     658     657     661     659     657     660
     659     657     661     660     657     661     661     662     663
     661     662     664     661     662     665     661     671     668
     661     671     672     662     661     671     662     665     666
     662     665     667     662     665     668     663     662     664
     663     662     665     664     662     665     665     668     669
     665     668     670     665     668     671     666     665     667
     666     665     668     667     665     668     668     671     672
     669     668     670     669     668     671     670     668     671
     673     677     678     673     677     687     674     673     675
     674     673     676     674     673     677     675     673     676
     675     673     677     676     673     677     677     678     679
     677     678     680     677     678     681     677     687     684
     677     687     688     678     677     687     678     681     682
     678     681     683     678     681     684     679     678     680
     679     678     681     680     678     681     681     684     685
     681     684     686     681     684     687     682     681     683
     682     681     684     683     681     684     684     687     688
     685     684     686     685     684     687     686     684     687
     689     693     694     689     693     703     690     689     691
     690     689     692     690     689     693     691     689     692
     691     689     693     692     689     693     693     694     695
     693     694     696     693     694     697     693     703     700
     693     703     704     694     693     703     694     697     698
     694     697     699     694     697     700     695     694     696
     695     694     697     696     694     697     697     700     701
     697     700     702     697     700     703     698     697     699
     698     697     700     699     697     700     700     703     704
     701     700     702     701     700     703     702     700     703
     705     709     710     705     709     719     706     705     707
     706     705     708     706     705     709     707     705     708
     707     705     709     708     705     709     709     710     711
     709     710     712     709     710     713     709     719     716
     709     719     720     710     709     719     710     713     714
     710     713     715     710     713     716     711     710     712
     711     710     713     712     710     713     713     716     717
     713     716     718     713     716     719     714     713     715
     714     713     716     715     713     716     716     719     720
     717     716     718     717     716     719     718     716     719
     721     725     726     721     725     735     722     721     723
     722     721     724     722     721     725     723     721     724
     723     721     725     724     721     725     725     726     727
     725     726     728     725     726     729     725     735     732
     725     735     736     726     725     735     726     729     730
     726     729     731     726     729     732     727     726     728
     727     726     729     728     726     729     729     732     733
     729     732     734     729     732     735     730     729     731
     730     729     732     731     729     732     732     735     736
     733     732     734     733     732     735     734     732     735
     737     741     742     737     741     751     738     737     739
     738     737     740     738     737     741     739     737     740
     739     737     741     740     737     741     741     742     743
     741     742     744     741     742     745     741     751     748
     741     751     752     742     741     751     742     745     746
     742     745     747     742     745     748     743     742     744
     743     742     745     744     742     745     745     748     749
     745     748     750     745     748     751     746     745     747
     746     745     748     747     745     748     748     751     752
     749     748     750     749     748     751     750     748     751
     753     757     758     753     757     767     754     753     755
     754     753     756     754     753     757     755     753     756
     755     753     757     756     753     757     757     758     759
     757     758     760     757     758     761     757     767     764
     757     767     768     758     757     767     758     761     762
     758     761     763     758     761     764     759     758     760
     759     758     761     760     758     761     761     764     765
     761     764     766     761     764     767     762     761     763
     762     761     764     763     761     764     764     767     768
     765     764     766     765     764     767     766     764     767
     769     773     774     769     773     783     770     769     771
     770     769     772     770     769     773     771     769     772
     771     769     773     772     769     773     773     774     775
     773     774     776     773     774     777     773     783     780
     773     783     784     774     773     783     774     777     778
     774     777     779     774     777     780     775     774     776
     775     774     777     776     774     777     777     780     781
     777     780     782     777     780     783     778     777     779
     778     777     780     779     777     780     780     783     784
     781     780     782     781     780     783     782     780     783
     785     789     790     785     789     799     786     785     787
     786     785     788     786     785     789     787     785     788
     787     785     789     788     785     789     789     790     791
     789     790     792     789     790     793     789     799     796
     789     799     800     790     789     799     790     793     794
     790     793     795     790     793     796     791     790     792
     791     790     793     792     790     793     793     796     797
     793     796     798     793     796     799     794     793     795
     794     793     796     795     793     796     796     799     800
     797     796     798     797     796     799     798     796     799
     801     805     806     801     805     815     802     801     803
     802     801     804     802     801     805     803     801     804
     803     801     805     804     801     805     805     806     807
     805     806     808     805     806     809     805     815     812
     805     815     816     806     805     815     806     809     810
     806     809     811     806     809     812     807     806     808
     807     806     809     808     806     809     809     812     813
     809     812     814     809     812     815     810     809     811
     810     809     812     811     809     812     812     815     816
     813     812     814     813     812     815     814     812     815
     817     821     822     817     821     831     818     817     819
     818     817     820     818     817     821     819     817     820
     819     817     821     820     817     821     821     822     823
     821     822     824     821     822     825     821     831     828
     821     831     832     822     821     831     822     825     826
     822     825     827     822     825     828     823     822     824
     823     822     825     824     822     825     825     828     829
     825     828     830     825     828     831     826     825     827
     826     825     828     827     825     828     828     831     832
     829     828     830     829     828     831     830     828     831
     833     837     838     833     837     847     834     833     835
     834     833     836     834     833     837     835     833     836
     835     833     837     836     833     837     837     838     839
     837     838     840     837     838     841     837     847     844
     837     847     848     838     837     847     838     841     842
     838     841     843     838     841     844     839     838     840
     839     838     841     840     838     841     841     844     845
     841     844     846     841     844     847     842     841     843
     842     841     844     843     841     844     844     847     848
     845     844     846     845     844     847     846     844     847
     849     853     854     849     853     863     850     849     851
     850     849     852     850     849     853     851     849     852
     851     849     853     852     849     853     853     854     855
     853     854     856     853     854     857     853     863     860
     853     863     864     854     853     863     854     857     858
     854     857     859     854     857     860     855     854     856
     855     854     857     856     854     857     857     860     861
     857     860     862     857     860     863     858     857     859
     858     857     860     859     857     860     860     863     864
     861     860     862     861     860     863     862     860     863
     865     869     870     865     869     879     866     865     867
     866     865     868     866     865     869     867     865     868
     867     865     869     868     865     869     869     870     871
     869     870     872     869     870     873     869     879     876
     869     879     880     870     869     879     870     873     874
     870     873     875     870     873     876     871     870     872
     871     870     873     872     870     873     873     876     877
     873     876     878     873     876     879     874     873     875
     874     873     876     875     873     876     876     879     880
     877     876     878     877     876     879     878     876     879
     881     885     886     881     885     895     882     881     883
     882     881     884     882     881     885     883     881     884
     883     881     885     884     881     885     885     886     887
     885     886     888     885     886     889     885     895     892
     885     895     896     886     885     895     886     889     890
     886     889     891     886     889     892     887     886     888
     887     886     889     888     886     889     889     892     893
     889     892     894     889     892     895     890     889     891
     890     889     892     891     889     892     892     895     896
     893     892     894     893     892     895     894     892     895
     897     901     902     897     901     911     898     897     899
     898     897     900     898     897     901     899     897     900
     899     897     901     900     897     901     901     902     903
     901     902     904     901     902     905     901     911     908
     901     911     912     902     901     911     902     905     906
     902     905     907     902     905     908     903     902     904
     903     902     905     904     902     905     905     908     909
     905     908     910     905     908     911     906     905     907
     906     905     908     907     905     908     908     911     912
     909     908     910     909     908     911     910     908     911
     913     917     918     913     917     927     914     913     915
     914     913     916     914     913     917     915     913     916
     915     913     917     916     913     917     917     918     919
     917     918     920     917     918     921     917     927     924
     917     927     928     918     917     927     918     921     922
     918     921     923     918     921     924     919     918     920
     919     918     921     920     918     921     921     924     925
     921     924     926     921     924     927     922     921     923
     922     921     924     923     921     924     924     927     928
     925     924     926     925     924     927     926     924     927
     929     933     934     929     933     943     930     929     931
     930     929     932     930     929     933     931     929     932
     931     929     933     932     929     933     933     934     935
     933     934     936     933     934     937     933     943     940
     933     943     944     934     933     943     934     937     938
     934     937     939     934     937     940     935     934     936
     935     934     937     936     934     937     937     940     941
     937     940     942     937     940     943     938     937     939
     938     937     940     939     937     940     940     943     944
     941     940     942     941     940     943     942     940     943
     945     949     950     945     949     959     946     945     947
     946     945     948     946     945     949     947     945     948
     947     945     949     948     945     949     949     950     951
     949     950     952     949     950     953     949     959     956
     949     959     960     950     949     959     950     953     954
     950     953     955     950     953     956     951     950     952
     951     950     953     952     950     953     953     956     957
     953     956     958     953     956     959     954     953     955
     954     953     956     955     953     956     956     959     960
     957     956     958     957     956     959     958     956     959
     961     965     966     961     965     975     962     961     963
     962     961     964     962     961     965     963     961     964
     963     961     965     964     961     965     965     966     967
     965     966     968     965     966     969     965     975     972
     965     975     976     966     965     975     966     969     970
     966     969     971     966     969     972     967     966     968
     967     966     969     968     966     969     969     972     973
     969     972     974     969     972     975     970     969     971
     970     969     972     971     969     972     972     975     976
     973     972     974     973     972     975     974     972     975
     977     981     982     977     981     991     978     977     979
     978     977     980     978     977     981     979     977     980
     979     977     981     980     977     981     981     982     983
     981     982     984     981     982     985     981     991     988
     981     991     992     982     981     991     982     985     986
     982     985     987     982     985     988     983     982     984
     983     982     985     984     982     985     985     988     989
     985     988     990     985     988     991     986     985     987
     986     985     988     987     985     988     988     991     992
     989     988     990     989     988     991     990     988     991
     993     997     998     993     997    1007     994     993     995
     994     993     996     994     993     997     995     993     996
     995     993     997     996     993     997     997     998     999
     997     998    1000     997     998    1001     997    1007    1004
     997    1007    1008     998     997    1007     998    1001    1002
     998    1001    1003     998    1001    1004     999     998    1000
     999     998    1001    1000     998    1001    1001    1004    1005
    1001    1004    1006    1001    1004    1007    1002    1001    1003
    1002    1001    1004    1003    1001    1004    1004    1007    1008
    1005    1004    1006    1005    1004    1007    1006    1004    1007
    1009    1013    1014    1009    1013    1023    1010    1009    1011
    1010    1009    1012    1010    1009    1013    1011    1009    1012
    1011    1009    1013    1012    1009    1013    1013    1014    1015
    1013    1014    1016    1013    1014    1017    1013    1023    1020
    1013    1023    1024    1014    1013    1023    1014    1017    1018
    1014    1017    1019    1014    1017    1020    1015    1014    1016
    1015    1014    1017    1016    1014    1017    1017    1020    1021
    1017    1020    1022    1017    1020    1023    1018    1017    1019
    1018    1017    1020    1019    1017    1020    1020    1023    1024
    1021    1020    1022    1021    1020    1023    1022    1020    1023
    1025    1029    1030    1025    1029    1039    1026    1025    1027
    1026    1025    1028    1026    1025    1029    1027    1025    1028
    1027    1025    1029    1028    1025    1029    1029    1030    1031
    1029    1030    1032    1029    1030    1033    1029    1039    1036
    1029    1039    1040    1030    1029    1039    1030    1033    1034
    1030    1033    1035    1030    1033    1036    1031    1030    1032
    1031    1030    1033    1032    1030    1033    1033    1036    1037
    1033    1036    1038    1033    1036    1039    1034    1033    1035
    1034    1033    1036    1035    1033    1036    1036    1039    1040
    1037    1036    1038    1037    1036    1039    1038    1036    1039
    1041    1045    1046    1041    1045    1055    1042    1041    1043
    1042    1041    1044    1042    1041    1045    1043    1041    1044
    1043    1041    1045    1044    1041    1045    1045    1046    1047
    1045    1046    1048    1045    1046    1049    1045    1055    1052
    1045    1055    1056    1046    1045    1055    1046    1049    1050
    1046    1049    1051    1046    1049    1052    1047    1046    1048
    1047    1046    1049    1048    1046    1049    1049    1052    1053
    1049    1052    1054    1049    1052    1055    1050    1049    1051
    1050    1049    1052    1051    1049    1052    1052    1055    1056
    1053    1052    1054    1053    1052    1055    1054    1052    1055
    1057    1061    1062    1057    1061    1071    1058    1057    1059
    1058    1057    1060    1058    1057    1061    1059    1057    1060
    1059    1057    1061    1060    1057    1061    1061    1062    1063
    1061    1062    1064    1061    1062    1065    1061    1071    1068
    1061    1071    1072    1062    1061    1071    1062    1065    1066
    1062    1065    1067    1062    1065    1068    1063    1062    1064
    1063    1062    1065    1064    1062    1065    1065    1068    1069
    1065    1068    1070    1065    1068    1071    1066    1065    1067
    1066    1065    1068    1067    1065    1068    1068    1071    1072
    1069    1068    1070    1069    1068    1071    1070    1068    1071
    1073    1077    1078    1073    1077    1087    1074    1073    1075
    1074    1073    1076    1074    1073    1077    1075    1073    1076
    1075    1073    1077    1076    1073    1077    1077    1078    1079
    1077    1078    1080    1077    1078    1081    1077    1087    1084
    1077    1087    1088    1078    1077    1087    1078    1081    1082
    1078    1081    1083    1078    1081    1084    1079    1078    1080
    1079    1078    1081    1080    1078    1081    1081    1084    1085
    1081    1084    1086    1081    1084    1087    1082    1081    1083
    1082    1081    1084    1083    1081    1084    1084    1087    1088
    1085    1084    1086    1085    1084    1087    1086    1084    1087
    1089    1093    1094    1089    1093    1103    1090    1089    1091
    1090    1089    1092    1090    1089    1093    1091    1089    1092
    1091    1089    1093    1092    1089    1093    1093    1094    1095
    1093    1094    1096    1093    1094    1097    1093    1103    1100
    1093    1103    1104    1094    1093    1103    1094    1097    1098
    1094    1097    1099    1094    1097    1100    1095    1094    1096
    1095    1094    1097    1096    1094    1097    1097    1100    1101
    1097    1100    1102    1097    1100    1103    1098    1097    1099
    1098    1097    1100    1099    1097    1100    1100    1103    1104
    1101    1100    1102    1101    1100    1103    1102    1100    1103
    1105    1109    1110    1105    1109    1119    1106    1105    1107
    1106    1105    1108    1106    1105    1109    1107    1105    1108
    1107    1105    1109    1108    1105    1109    1109    1110    1111
    1109    1110    1112    1109    1110    1113    1109    1119    1116
    1109    1119    1120    1110    1109    1119    1110    1113    1114
    1110    1113    1115    1110    1113    1116    1111    1110    1112
    1111    1110    1113    1112    1110    1113    1113    1116    1117
    1113    1116    1118    1113    1116    1119    1114    1113    1115
    1114    1113    1116    1115    1113    1116    1116    1119    1120
    1117    1116    1118    1117    1116    1119    1118    1116    1119
    1121    1125    1126    1121    1125    1135    1122    1121    1123
    1122    1121    1124    1122    1121    1125    1123    1121    1124
    1123    1121    1125    1124    1121    1125    1125    1126    1127
    1125    1126    1128    1125    1126    1129    1125    1135    1132
    1125    1135    1136    1126    1125    1135    1126    1129    1130
    1126    1129    1131    1126    1129    1132    1127    1126    1128
    1127    1126    1129    1128    1126    1129    1129    1132    1133
    1129    1132    1134    1129    1132    1135    1130    1129    1131
    1130    1129    1132    1131    1129    1132    1132    1135    1136
    1133    1132    1134    1133    1132    1135    1134    1132    1135
    1137    1141    1142    1137    1141    1151    1138    1137    1139
    1138    1137    1140    1138    1137    1141    1139    1137    1140
    1139    1137    1141    1140    1137    1141    1141    1142    1143
    1141    1142    1144    1141    1142    1145    1141    1151    1148
    1141    1151    1152    1142    1141    1151    1142    1145    1146
    1142    1145    1147    1142    1145    1148    1143    1142    1144
    1143    1142    1145    1144    1142    1145    1145    1148    1149
    1145    1148    1150    1145    1148    1151    1146    1145    1147
    1146    1145    1148    1147    1145    1148    1148    1151    1152
    1149    1148    1150    1149    1148    1151    1150    1148    1151
    1153    1157    1158    1153    1157    1167    1154    1153    1155
    1154    1153    1156    1154    1153    1157    1155    1153    1156
    1155    1153    1157    1156    1153    1157    1157    1158    1159
    1157    1158    1160    1157    1158    1161    1157    1167    1164
    1157    1167    1168    1158    1157    1167    1158    1161    1162
    1158    1161    1163    1158    1161    1164    1159    1158    1160
    1159    1158    1161    1160    1158    1161    1161    1164    1165
    1161    1164    1166    1161    1164    1167    1162    1161    1163
    1162    1161    1164    1163    1161    1164    1164    1167    1168
    1165    1164    1166    1165    1164    1167    1166    1164    1167
    1169    1173    1174    1169    1173    1183    1170    1169    1171
    1170    1169    1172    1170    1169    1173    1171    1169    1172
    1171    1169    1173    1172    1169    1173    1173    1174    1175
    1173    1174    1176    1173    1174    1177    1173    1183    1180
    1173    1183    1184    1174    1173    1183    1174    1177    1178
    1174    1177    1179    1174    1177    1180    1175    1174    1176
    1175    1174    1177    1176    1174    1177    1177    1180    1181
    1177    1180    1182    1177    1180    1183    1178    1177    1179
    1178    1177    1180    1179    1177    1180    1180    1183    1184
    1181    1180    1182    1181    1180    1183    1182    1180    1183
    1185    1189    1190    1185    1189    1199    1186    1185    1187
    1186    1185    1188    1186    1185    1189    1187    1185    1188
    1187    1185    1189    1188    1185    1189    1189    1190    1191
    1189    1190    1192    1189    1190    1193    1189    1199    1196
    1189    1199    1200    1190    1189    1199    1190    1193    1194
    1190    1193    1195    1190    1193    1196    1191    1190    1192
    1191    1190    1193    1192    1190    1193    1193    1196    1197
    1193    1196    1198    1193    1196    1199    1194    1193    1195
    1194    1193    1196    1195    1193    1196    1196    1199    1200
    1197    1196    1198    1197    1196    1199    1198    1196    1199
    1201    1205    1206    1201    1205    1215    1202    1201    1203
    1202    1201    1204    1202    1201    1205    1203    1201    1204
    1203    1201    1205    1204    1201    1205    1205    1206    1207
    1205    1206    1208    1205    1206    1209    1205    1215    1212
    1205    1215    1216    1206    1205    1215    1206    1209    1210
    1206    1209    1211    1206    1209    1212    1207    1206    1208
    1207    1206    1209    1208    1206    1209    1209    1212    1213
    1209    1212    1214    1209    1212    1215    1210    1209    1211
    1210    1209    1212    1211    1209    1212    1212    1215    1216
    1213    1212    1214    1213    1212    1215    1214    1212    1215
    1217    1221    1222    1217    1221    1231    1218    1217    1219
    1218    1217    1220    1218    1217    1221    1219    1217    1220
    1219    1217    1221    1220    1217    1221    1221    1222    1223
    1221    1222    1224    1221    1222    1225    1221    1231    1228
    1221    1231    1232    1222    1221    1231    1222    1225    1226
    1222    1225    1227    1222    1225    1228    1223    1222    1224
    1223    1222    1225    1224    1222    1225    1225    1228    1229
    1225    1228    1230    1225    1228    1231    1226    1225    1227
    1226    1225    1228    1227    1225    1228    1228    1231    1232
    1229    1228    1230    1229    1228    1231    1230    1228    1231
    1233    1237    1238    1233    1237    1247    1234    1233    1235
    1234    1233    1236    1234    1233    1237    1235    1233    1236
    1235    1233    1237    1236    1233    1237    1237    1238    1239
    1237    1238    1240    1237    1238    1241    1237    1247    1244
    1237    1247    1248    1238    1237    1247    1238    1241    1242
    1238    1241    1243    1238    1241    1244    1239    1238    1240
    1239    1238    1241    1240    1238    1241    1241    1244    1245
    1241    1244    1246    1241    1244    1247    1242    1241    1243
    1242    1241    1244    1243    1241    1244    1244    1247    1248
    1245    1244    1246    1245    1244    1247    1246    1244    1247
    1249    1253    1254    1249    1253    1263    1250    1249    1251
    1250    1249    1252    1250    1249    1253    1251    1249    1252
    1251    1249    1253    1252    1249    1253    1253    1254    1255
    1253    1254    1256    1253    1254    1257    1253    1263    1260
    1253    1263    1264    1254    1253    1263    1254    1257    1258
    1254    1257    1259    1254    1257    1260    1255    1254    1256
    1255    1254    1257    1256    1254    1257    1257    1260    1261
    1257    1260    1262    1257    1260    1263    1258    1257    1259
    1258    1257    1260    1259    1257    1260    1260    1263    1264
    1261    1260    1262    1261    1260    1263    1262    1260    1263
    1265    1269    1270    1265    1269    1279    1266    1265    1267
    1266    1265    1268    1266    1265    1269    1267    1265    1268
    1267    1265    1269    1268    1265    1269    1269    1270    1271
    1269    1270    1272    1269    1270    1273    1269    1279    1276
    1269    1279    1280    1270    1269    1279    1270    1273    1274
    1270    1273    1275    1270    1273    1276    1271    1270    1272
    1271    1270    1273    1272    1270    1273    1273    1276    1277
    1273    1276    1278    1273    1276    1279    1274    1273    1275
    1274    1273    1276    1275    1273    1276    1276    1279    1280
    1277    1276    1278    1277    1276    1279    1278    1276    1279
    1281    1285    1286    1281    1285    1295    1282    1281    1283
    1282    1281    1284    1282    1281    1285    1283    1281    1284
    1283    1281    1285    1284    1281    1285    1285    1286    1287
    1285    1286    1288    1285    1286    1289    1285    1295    1292
    1285    1295    1296    1286    1285    1295    1286    1289    1290
    1286    1289    1291    1286    1289    1292    1287    1286    1288
    1287    1286    1289    1288    1286    1289    1289    1292    1293
    1289    1292    1294    1289    1292    1295    1290    1289    1291
    1290    1289    1292    1291    1289    1292    1292    1295    1296
    1293    1292    1294    1293    1292    1295    1294    1292    1295
    1297    1301    1302    1297    1301    1311    1298    1297    1299
    1298    1297    1300    1298    1297    1301    1299    1297    1300
    1299    1297    1301    1300    1297    1301    1301    1302    1303
    1301    1302    1304    1301    1302    1305    1301    1311    1308
    1301    1311    1312    1302    1301    1311    1302    1305    1306
    1302    1305    1307    1302    1305    1308    1303    1302    1304
    1303    1302    1305    1304    1302    1305    1305    1308    1309
    1305    1308    1310    1305    1308    1311    1306    1305    1307
    1306    1305    1308    1307    1305    1308    1308    1311    1312
    1309    1308    1310    1309    1308    1311    1310    1308    1311
    1313    1317    1318    1313    1317    1327    1314    1313    1315
    1314    1313    1316    1314    1313    1317    1315    1313    1316
    1315    1313    1317    1316    1313    1317    1317    1318    1319
    1317    1318    1320    1317    1318    1321    1317    1327    1324
    1317    1327    1328    1318    1317    1327    1318    1321    1322
    1318    1321    1323    1318    1321    1324    1319    1318    1320
    1319    1318    1321    1320    1318    1321    1321    1324    1325
    1321    1324    1326    1321    1324    1327    1322    1321    1323
    1322    1321    1324    1323    1321    1324    1324    1327    1328
    1325    1324    1326    1325    1324    1327    1326    1324    1327
    1329    1333    1334    1329    1333    1343    1330    1329    1331
    1330    1329    1332    1330    1329    1333    1331    1329    1332
    1331    1329    1333    1332    1329    1333    1333    1334    1335
    1333    1334    1336    1333    1334    1337    1333    1343    1340
    1333    1343    1344    1334    1333    1343    1334    1337    1338
    1334    1337    1339    1334    1337    1340    1335    1334    1336
    1335    1334    1337    1336    1334    1337    1337    1340    1341
    1337    1340    1342    1337    1340    1343    1338    1337    1339
    1338    1337    1340    1339    1337    1340    1340    1343    1344
    1341    1340    1342    1341    1340    1343    1342    1340    1343
    1345    1349    1350    1345    1349    1359    1346    1345    1347
    1346    1345    1348    1346    1345    1349    1347    1345    1348
    1347    1345    1349    1348    1345    1349    1349    1350    1351
    1349    1350    1352    1349    1350    1353    1349    1359    1356
    1349    1359    1360    1350    1349    1359    1350    1353    1354
    1350    1353    1355    1350    1353    1356    1351    1350    1352
    1351    1350    1353    1352    1350    1353    1353    1356    1357
    1353    1356    1358    1353    1356    1359    1354    1353    1355
    1354    1353    1356    1355    1353    1356    1356    1359    1360
    1357    1356    1358    1357    1356    1359    1358    1356    1359
    1361    1365    1366    1361    1365    1375    1362    1361    1363
    1362    1361    1364    1362    1361    1365    1363    1361    1364
    1363    1361    1365    1364    1361    1365    1365    1366    1367
    1365    1366    1368    1365    1366    1369    1365    1375    1372
    1365    1375    1376    1366    1365    1375    1366    1369    1370
    1366    1369    1371    1366    1369    1372    1367    1366    1368
    1367    1366    1369    1368    1366    1369    1369    1372    1373
    1369    1372    1374    1369    1372    1375    1370    1369    1371
    1370    1369    1372    1371    1369    1372    1372    1375    1376
    1373    1372    1374    1373    1372    1375    1374    1372    1375
    1377    1381    1382    1377    1381    1391    1378    1377    1379
    1378    1377    1380    1378    1377    1381    1379    1377    1380
    1379    1377    1381    1380    1377    1381    1381    1382    1383
    1381    1382    1384    1381    1382    1385    1381    1391    1388
    1381    1391    1392    1382    1381    1391    1382    1385    1386
    1382    1385    1387    1382    1385    1388    1383    1382    1384
    1383    1382    1385    1384    1382    1385    1385    1388    1389
    1385    1388    1390    1385    1388    1391    1386    1385    1387
    1386    1385    1388    1387    1385    1388    1388    1391    1392
    1389    1388    1390    1389    1388    1391    1390    1388    1391
    1393    1397    1398    1393    1397    1407    1394    1393    1395
    1394    1393    1396    1394    1393    1397    1395    1393    1396
    1395    1393    1397    1396    1393    1397    1397    1398    1399
    1397    1398    1400    1397    1398    1401    1397    1407    1404
    1397    1407    1408    1398    1397    1407    1398    1401    1402
    1398    1401    1403    1398    1401    1404    1399    1398    1400
    1399    1398    1401    1400    1398    1401    1401    1404    1405
    1401    1404    1406    1401    1404    1407    1402    1401    1403
    1402    1401    1404    1403    1401    1404    1404    1407    1408
    1405    1404    1406    1405    1404    1407    1406    1404    1407
    1409    1413    1414    1409    1413    1423    1410    1409    1411
    1410    1409    1412    1410    1409    1413    1411    1409    1412
    1411    1409    1413    1412    1409    1413    1413    1414    1415
    1413    1414    1416    1413    1414    1417    1413    1423    1420
    1413    1423    1424    1414    1413    1423    1414    1417    1418
    1414    1417    1419    1414    1417    1420    1415    1414    1416
    1415    1414    1417    1416    1414    1417    1417    1420    1421
    1417    1420    1422    1417    1420    1423    1418    1417    1419
    1418    1417    1420    1419    1417    1420    1420    1423    1424
    1421    1420    1422    1421    1420    1423    1422    1420    1423
    1425    1429    1430    1425    1429    1439    1426    1425    1427
    1426    1425    1428    1426    1425    1429    1427    1425    1428
    1427    1425    1429    1428    1425    1429    1429    1430    1431
    1429    1430    1432    1429    1430    1433    1429    1439    1436
    1429    1439    1440    1430    1429    1439    1430    1433    1434
    1430    1433    1435    1430    1433    1436    1431    1430    1432
    1431    1430    1433    1432    1430    1433    1433    1436    1437
    1433    1436    1438    1433    1436    1439    1434    1433    1435
    1434    1433    1436    1435    1433    1436    1436    1439    1440
    1437    1436    1438    1437    1436    1439    1438    1436    1439
    1441    1445    1446    1441    1445    1455    1442    1441    1443
    1442    1441    1444    1442    1441    1445    1443    1441    1444
    1443    1441    1445    1444    1441    1445    1445    1446    1447
    1445    1446    1448    1445    1446    1449    1445    1455    1452
    1445    1455    1456    1446    1445    1455    1446    1449    1450
    1446    1449    1451    1446    1449    1452    1447    1446    1448
    1447    1446    1449    1448    1446    1449    1449    1452    1453
    1449    1452    1454    1449    1452    1455    1450    1449    1451
    1450    1449    1452    1451    1449    1452    1452    1455    1456
    1453    1452    1454    1453    1452    1455    1454    1452    1455
    1457    1461    1462    1457    1461    1471    1458    1457    1459
    1458    1457    1460    1458    1457    1461    1459    1457    1460
    1459    1457    1461    1460    1457    1461    1461    1462    1463
    1461    1462    1464    1461    1462    1465    1461    1471    1468
    1461    1471    1472    1462    1461    1471    1462    1465    1466
    1462    1465    1467    1462    1465    1468    1463    1462    1464
    1463    1462    1465    1464    1462    1465    1465    1468    1469
    1465    1468    1470    1465    1468    1471    1466    1465    1467
    1466    1465    1468    1467    1465    1468    1468    1471    1472
    1469    1468    1470    1469    1468    1471    1470    1468    1471
    1473    1477    1478    1473    1477    1487    1474    1473    1475
    1474    1473    1476    1474    1473    1477    1475    1473    1476
    1475    1473    1477    1476    1473    1477    1477    1478    1479
    1477    1478    1480    1477    1478    1481    1477    1487    1484
    1477    1487    1488    1478    1477    1487    1478    1481    1482
    1478    1481    1483    1478    1481    1484    1479    1478    1480
    1479    1478    1481    1480    1478    1481    1481    1484    1485
    1481    1484    1486    1481    1484    1487    1482    1481    1483
    1482    1481    1484    1483    1481    1484    1484    1487    1488
    1485    1484    1486    1485    1484    1487    1486    1484    1487
    1489    1493    1494    1489    1493    1503    1490    1489    1491
    1490    1489    1492    1490    1489    1493    1491    1489    1492
    1491    1489    1493    1492    1489    1493    1493    1494    1495
    1493    1494    1496    1493    1494    1497    1493    1503    1500
    1493    1503    1504    1494    1493    1503    1494    1497    1498
    1494    1497    1499    1494    1497    1500    1495    1494    1496
    1495    1494    1497    1496    1494    1497    1497    1500    1501
    1497    1500    1502    1497    1500    1503    1498    1497    1499
    1498    1497    1500    1499    1497    1500    1500    1503    1504
    1501    1500    1502    1501    1500    1503    1502    1500    1503
    1505    1509    1510    1505    1509    1519    1506    1505    1507
    1506    1505    1508    1506    1505    1509    1507    1505    1508
    1507    1505    1509    1508    1505    1509    1509    1510    1511
    1509    1510    1512    1509    1510    1513    1509    1519    1516
    1509    1519    1520    1510    1509    1519    1510    1513    1514
    1510    1513    1515    1510    1513    1516    1511    1510    1512
    1511    1510    1513    1512    1510    1513    1513    1516    1517
    1513    1516    1518    1513    1516    1519    1514    1513    1515
    1514    1513    1516    1515    1513    1516    1516    1519    1520
    1517    1516    1518    1517    1516    1519    1518    1516    1519
    1521    1525    1526    1521    1525    1535    1522    1521    1523
    1522    1521    1524    1522    1521    1525    1523    1521    1524
    1523    1521    1525    1524    1521    1525    1525    1526    1527
    1525    1526    1528    1525    1526    1529    1525    1535    1532
    1525    1535    1536    1526    1525    1535    1526    1529    1530
    1526    1529    1531    1526    1529    1532    1527    1526    1528
    1527    1526    1529    1528    1526    1529    1529    1532    1533
    1529    1532    1534    1529    1532    1535    1530    1529    1531
    1530    1529    1532    1531    1529    1532    1532    1535    1536
    1533    1532    1534    1533    1532    1535    1534    1532    1535
    1537    1541    1542    1537    1541    1551    1538    1537    1539
    1538    1537    1540    1538    1537    1541    1539    1537    1540
    1539    1537    1541    1540    1537    1541    1541    1542    1543
    1541    1542    1544    1541    1542    1545    1541    1551    1548
    1541    1551    1552    1542    1541    1551    1542    1545    1546
    1542    1545    1547    1542    1545    1548    1543    1542    1544
    1543    1542    1545    1544    1542    1545    1545    1548    1549
    1545    1548    1550    1545    1548    1551    1546    1545    1547
    1546    1545    1548    1547    1545    1548    1548    1551    1552
    1549    1548    1550    1549    1548    1551    1550    1548    1551
    1553    1557    1558    1553    1557    1567    1554    1553    1555
    1554    1553    1556    1554    1553    1557    1555    1553    1556
    1555    1553    1557    1556    1553    1557    1557    1558    1559
    1557    1558    1560    1557    1558    1561    1557    1567    1564
    1557    1567    1568    1558    1557    1567    1558    1561    1562
    1558    1561    1563    1558    1561    1564    1559    1558    1560
    1559    1558    1561    1560    1558    1561    1561    1564    1565
    1561    1564    1566    1561    1564    1567    1562    1561    1563
    1562    1561    1564    1563    1561    1564    1564    1567    1568
    1565    1564    1566    1565    1564    1567    1566    1564    1567
    1569    1573    1574    1569    1573    1583    1570    1569    1571
    1570    1569    1572    1570    1569    1573    1571    1569    1572
    1571    1569    1573    1572    1569    1573    1573    1574    1575
    1573    1574    1576    1573    1574    1577    1573    1583    1580
    1573    1583    1584    1574    1573    1583    1574    1577    1578
    1574    1577    1579    1574    1577    1580    1575    1574    1576
    1575    1574    1577    1576    1574    1577    1577    1580    1581
    1577    1580    1582    1577    1580    1583    1578    1577    1579
    1578    1577    1580    1579    1577    1580    1580    1583    1584
    1581    1580    1582    1581    1580    1583    1582    1580    1583
    1585    1589    1590    1585    1589    1599    1586    1585    1587
    1586    1585    1588    1586    1585    1589    1587    1585    1588
    1587    1585    1589    1588    1585    1589    1589    1590    1591
    1589    1590    1592    1589    1590    1593    1589    1599    1596
    1589    1599    1600    1590    1589    1599    1590    1593    1594
    1590    1593    1595    1590    1593    1596    1591    1590    1592
    1591    1590    1593    1592    1590    1593    1593    1596    1597
    1593    1596    1598    1593    1596    1599    1594    1593    1595
    1594    1593    1596    1595    1593    1596    1596    1599    1600
    1597    1596    1598    1597    1596    1599    1598    1596    1599
    1601    1605    1606    1601    1605    1615    1602    1601    1603
    1602    1601    1604    1602    1601    1605    1603    1601    1604
    1603    1601    1605    1604    1601    1605    1605    1606    1607
    1605    1606    1608    1605    1606    1609    1605    1615    1612
    1605    1615    1616    1606    1605    1615    1606    1609    1610
    1606    1609    1611    1606    1609    1612    1607    1606    1608
    1607    1606    1609    1608    1606    1609    1609    1612    1613
    1609    1612    1614    1609    1612    1615    1610    1609    1611
    1610    1609    1612    1611    1609    1612    1612    1615    1616
    1613    1612    1614    1613    1612    1615    1614    1612    1615
    1617    1621    1622    1617    1621    1631    1618    1617    1619
    1618    1617    1620    1618    1617    1621    1619    1617    1620
    1619    1617    1621    1620    1617    1621    1621    1622    1623
    1621    1622    1624    1621    1622    1625    1621    1631    1628
    1621    1631    1632    1622    1621    1631    1622    1625    1626
    1622    1625    1627    1622    1625    1628    1623    1622    1624
    1623    1622    1625    1624    1622    1625    1625    1628    1629
    1625    1628    1630    1625    1628    1631    1626    1625    1627
    1626    1625    1628    1627    1625    1628    1628    1631    1632
    1629    1628    1630    1629    1628    1631    1630    1628    1631
    1633    1637    1638    1633    1637    1647    1634    1633    1635
    1634    1633    1636    1634    1633    1637    1635    1633    1636
    1635    1633    1637    1636    1633    1637    1637    1638    1639
    1637    1638    1640    1637    1638    1641    1637    1647    1644
    1637    1647    1648    1638    1637    1647    1638    1641    1642
    1638    1641    1643    1638    1641    1644    1639    1638    1640
    1639    1638    1641    1640    1638    1641    1641    1644    1645
    1641    1644    1646    1641    1644    1647    1642    1641    1643
    1642    1641    1644    1643    1641    1644    1644    1647    1648
    1645    1644    1646    1645    1644    1647    1646    1644    1647
    1649    1653    1654    1649    1653    1663    1650    1649    1651
    1650    1649    1652    1650    1649    1653    1651    1649    1652
    1651    1649    1653    1652    1649    1653    1653    1654    1655
    1653    1654    1656    1653    1654    1657    1653    1663    1660
    1653    1663    1664    1654    1653    1663    1654    1657    1658
    1654    1657    1659    1654    1657    1660    1655    1654    1656
    1655    1654    1657    1656    1654    1657    1657    1660    1661
    1657    1660    1662    1657    1660    1663    1658    1657    1659
    1658    1657    1660    1659    1657    1660    1660    1663    1664
    1661    1660    1662    1661    1660    1663    1662    1660    1663
    1665    1669    1670    1665    1669    1679    1666    1665    1667
    1666    1665    1668    1666    1665    1669    1667    1665    1668
    1667    1665    1669    1668    1665    1669    1669    1670    1671
    1669    1670    1672    1669    1670    1673    1669    1679    1676
    1669    1679    1680    1670    1669    1679    1670    1673    1674
    1670    1673    1675    1670    1673    1676    1671    1670    1672
    1671    1670    1673    1672    1670    1673    1673    1676    1677
    1673    1676    1678    1673    1676    1679    1674    1673    1675
    1674    1673    1676    1675    1673    1676    1676    1679    1680
    1677    1676    1678    1677    1676    1679    1678    1676    1679
    1681    1685    1686    1681    1685    1695    1682    1681    1683
    1682    1681    1684    1682    1681    1685    1683    1681    1684
    1683    1681    1685    1684    1681    1685    1685    1686    1687
    1685    1686    1688    1685    1686    1689    1685    1695    1692
    1685    1695    1696    1686    1685    1695    1686    1689    1690
    1686    1689    1691    1686    1689    1692    1687    1686    1688
    1687    1686    1689    1688    1686    1689    1689    1692    1693
    1689    1692    1694    1689    1692    1695    1690    1689    1691
    1690    1689    1692    1691    1689    1692    1692    1695    1696
    1693    1692    1694    1693    1692    1695    1694    1692    1695
    1697    1701    1702    1697    1701    1711    1698    1697    1699
    1698    1697    1700    1698    1697    1701    1699    1697    1700
    1699    1697    1701    1700    1697    1701    1701    1702    1703
    1701    1702    1704    1701    1702    1705    1701    1711    1708
    1701    1711    1712    1702    1701    1711    1702    1705    1706
    1702    1705    1707    1702    1705    1708    1703    1702    1704
    1703    1702    1705    1704    1702    1705    1705    1708    1709
    1705    1708    1710    1705    1708    1711    1706    1705    1707
    1706    1705    1708    1707    1705    1708    1708    1711    1712
    1709    1708    1710    1709    1708    1711    1710    1708    1711
    1713    1717    1718    1713    1717    1727    1714    1713    1715
    1714    1713    1716    1714    1713    1717    1715    1713    1716
    1715    1713    1717    1716    1713    1717    1717    1718    1719
    1717    1718    1720    1717    1718    1721    1717    1727    1724
    1717    1727    1728    1718    1717    1727    1718    1721    1722
    1718    1721    1723    1718    1721    1724    1719    1718    1720
    1719    1718    1721    1720    1718    1721    1721    1724    1725
    1721    1724    1726    1721    1724    1727    1722    1721    1723
    1722    1721    1724    1723    1721    1724    1724    1727    1728
    1725    1724    1726    1725    1724    1727    1726    1724    1727
    1729    1733    1734    1729    1733    1743    1730    1729    1731
    1730    1729    1732    1730    1729    1733    1731    1729    1732
    1731    1729    1733    1732    1729    1733    1733    1734    1735
    1733    1734    1736    1733    1734    1737    1733    1743    1740
    1733    1743    1744    1734    1733    1743    1734    1737    1738
    1734    1737    1739    1734    1737    1740    1735    1734    1736
    1735    1734    1737    1736    1734    1737    1737    1740    1741
    1737    1740    1742    1737    1740    1743    1738    1737    1739
    1738    1737    1740    1739    1737    1740    1740    1743    1744
    1741    1740    1742    1741    1740    1743    1742    1740    1743
    1745    1749    1750    1745    1749    1759    1746    1745    1747
    1746    1745    1748    1746    1745    1749    1747    1745    1748
    1747    1745    1749    1748    1745    1749    1749    1750    1751
    1749    1750    1752    1749    1750    1753    1749    1759    1756
    1749    1759    1760    1750    1749    1759    1750    1753    1754
    1750    1753    1755    1750    1753    1756    1751    1750    1752
    1751    1750    1753    1752    1750    1753    1753    1756    1757
    1753    1756    1758    1753    1756    1759    1754    1753    1755
    1754    1753    1756    1755    1753    1756    1756    1759    1760
    1757    1756    1758    1757    1756    1759    1758    1756    1759
    1761    1765    1766    1761    1765    1775    1762    1761    1763
    1762    1761    1764    1762    1761    1765    1763    1761    1764
    1763    1761    1765    1764    1761    1765    1765    1766    1767
    1765    1766    1768    1765    1766    1769    1765    1775    1772
    1765    1775    1776    1766    1765    1775    1766    1769    1770
    1766    1769    1771    1766    1769    1772    1767    1766    1768
    1767    1766    1769    1768    1766    1769    1769    1772    1773
    1769    1772    1774    1769    1772    1775    1770    1769    1771
    1770    1769    1772    1771    1769    1772    1772    1775    1776
    1773    1772    1774    1773    1772    1775    1774    1772    1775
    1777    1781    1782    1777    1781    1791    1778    1777    1779
    1778    1777    1780    1778    1777    1781    1779    1777    1780
    1779    1777    1781    1780    1777    1781    1781    1782    1783
    1781    1782    1784    1781    1782    1785    1781    1791    1788
    1781    1791    1792    1782    1781    1791    1782    1785    1786
    1782    1785    1787    1782    1785    1788    1783    1782    1784
    1783    1782    1785    1784    1782    1785    1785    1788    1789
    1785    1788    1790    1785    1788    1791    1786    1785    1787
    1786    1785    1788    1787    1785    1788    1788    1791    1792
    1789    1788    1790    1789    1788    1791    1790    1788    1791
    1793    1797    1798    1793    1797    1807    1794    1793    1795
    1794    1793    1796    1794    1793    1797    1795    1793    1796
    1795    1793    1797    1796    1793    1797    1797    1798    1799
    1797    1798    1800    1797    1798    1801    1797    1807    1804
    1797    1807    1808    1798    1797    1807    1798    1801    1802
    1798    1801    1803    1798    1801    1804    1799    1798    1800
    1799    1798    1801    1800    1798    1801    1801    1804    1805
    1801    1804    1806    1801    1804    1807    1802    1801    1803
    1802    1801    1804    1803    1801    1804    1804    1807    1808
    1805    1804    1806    1805    1804    1807    1806    1804    1807
    1809    1813    1814    1809    1813    1823    1810    1809    1811
    1810    1809    1812    1810    1809    1813    1811    1809    1812
    1811    1809    1813    1812    1809    1813    1813    1814    1815
    1813    1814    1816    1813    1814    1817    1813    1823    1820
    1813    1823    1824    1814    1813    1823    1814    1817    1818
    1814    1817    1819    1814    1817    1820    1815    1814    1816
    1815    1814    1817    1816    1814    1817    1817    1820    1821
    1817    1820    1822    1817    1820    1823    1818    1817    1819
    1818    1817    1820    1819    1817    1820    1820    1823    1824
    1821    1820    1822    1821    1820    1823    1822    1820    1823
    1825    1829    1830    1825    1829    1839    1826    1825    1827
    1826    1825    1828    1826    1825    1829    1827    1825    1828
    1827    1825    1829    1828    1825    1829    1829    1830    1831
    1829    1830    1832    1829    1830    1833    1829    1839    1836
    1829    1839    1840    1830    1829    1839    1830    1833    1834
    1830    1833    1835    1830    1833    1836    1831    1830    1832
    1831    1830    1833    1832    1830    1833    1833    1836    1837
    1833    1836    1838    1833    1836    1839    1834    1833    1835
    1834    1833    1836    1835    1833    1836    1836    1839    1840
    1837    1836    1838    1837    1836    1839    1838    1836    1839
    1841    1845    1846    1841    1845    1855    1842    1841    1843
    1842    1841    1844    1842    1841    1845    1843    1841    1844
    1843    1841    1845    1844    1841    1845    1845    1846    1847
    1845    1846    1848    1845    1846    1849    1845    1855    1852
    1845    1855    1856    1846    1845    1855    1846    1849    1850
    1846    1849    1851    1846    1849    1852    1847    1846    1848
    1847    1846    1849    1848    1846    1849    1849    1852    1853
    1849    1852    1854    1849    1852    1855    1850    1849    1851
    1850    1849    1852    1851    1849    1852    1852    1855    1856
    1853    1852    1854    1853    1852    1855    1854    1852    1855
    1857    1861    1862    1857    1861    1871    1858    1857    1859
    1858    1857    1860    1858    1857    1861    1859    1857    1860
    1859    1857    1861    1860    1857    1861    1861    1862    1863
    1861    1862    1864    1861    1862    1865    1861    1871    1868
    1861    1871    1872    1862    1861    1871    1862    1865    1866
    1862    1865    1867    1862    1865    1868    1863    1862    1864
    1863    1862    1865    1864    1862    1865    1865    1868    1869
    1865    1868    1870    1865    1868    1871    1866    1865    1867
    1866    1865    1868    1867    1865    1868    1868    1871    1872
    1869    1868    1870    1869    1868    1871    1870    1868    1871
    1873    1877    1878    1873    1877    1887    1874    1873    1875
    1874    1873    1876    1874    1873    1877    1875    1873    1876
    1875    1873    1877    1876    1873    1877    1877    1878    1879
    1877    1878    1880    1877    1878    1881    1877    1887    1884
    1877    1887    1888    1878    1877    1887    1878    1881    1882
    1878    1881    1883    1878    1881    1884    1879    1878    1880
    1879    1878    1881    1880    1878    1881    1881    1884    1885
    1881    1884    1886    1881    1884    1887    1882    1881    1883
    1882    1881    1884    1883    1881    1884    1884    1887    1888
    1885    1884    1886    1885    1884    1887    1886    1884    1887
    1889    1893    1894    1889    1893    1903    1890    1889    1891
    1890    1889    1892    1890    1889    1893    1891    1889    1892
    1891    1889    1893    1892    1889    1893    1893    1894    1895
    1893    1894    1896    1893    1894    1897    1893    1903    1900
    1893    1903    1904    1894    1893    1903    1894    1897    1898
    1894    1897    1899    1894    1897    1900    1895    1894    1896
    1895    1894    1897    1896    1894    1897    1897    1900    1901
    1897    1900    1902    1897    1900    1903    1898    1897    1899
    1898    1897    1900    1899    1897    1900    1900    1903    1904
    1901    1900    1902    1901    1900    1903    1902    1900    1903
    1905    1909    1910    1905    1909    1919    1906    1905    1907
    1906    1905    1908    1906    1905    1909    1907    1905    1908
    1907    1905    1909    1908    1905    1909    1909    1910    1911
    1909    1910    1912    1909    1910    1913    1909    1919    1916
    1909    1919    1920    1910    1909    1919    1910    1913    1914
    1910    1913    1915    1910    1913    1916    1911    1910    1912
    1911    1910    1913    1912    1910    1913    1913    1916    1917
    1913    1916    1918    1913    1916    1919    1914    1913    1915
    1914    1913    1916    1915    1913    1916    1916    1919    1920
    1917    1916    1918    1917    1916    1919    1918    1916    1919
    1921    1925    1926    1921    1925    1935    1922    1921    1923
    1922    1921    1924    1922    1921    1925    1923    1921    1924
    1923    1921    1925    1924    1921    1925    1925    1926    1927
    1925    1926    1928    1925    1926    1929    1925    1935    1932
    1925    1935    1936    1926    1925    1935    1926    1929    1930
    1926    1929    1931    1926    1929    1932    1927    1926    1928
    1927    1926    1929    1928    1926    1929    1929    1932    1933
    1929    1932    1934    1929    1932    1935    1930    1929    1931
    1930    1929    1932    1931    1929    1932    1932    1935    1936
    1933    1932    1934    1933    1932    1935    1934    1932    1935
    1937    1941    1942    1937    1941    1951    1938    1937    1939
    1938    1937    1940    1938    1937    1941    1939    1937    1940
    1939    1937    1941    1940    1937    1941    1941    1942    1943
    1941    1942    1944    1941    1942    1945    1941    1951    1948
    1941    1951    1952    1942    1941    1951    1942    1945    1946
    1942    1945    1947    1942    1945    1948    1943    1942    1944
    1943    1942    1945    1944    1942    1945    1945    1948    1949
    1945    1948    1950    1945    1948    1951    1946    1945    1947
    1946    1945    1948    1947    1945    1948    1948    1951    1952
    1949    1948    1950    1949    1948    1951    1950    1948    1951
    1953    1957    1958    1953    1957    1967    1954    1953    1955
    1954    1953    1956    1954    1953    1957    1955    1953    1956
    1955    1953    1957    1956    1953    1957    1957    1958    1959
    1957    1958    1960    1957    1958    1961    1957    1967    1964
    1957    1967    1968    1958    1957    1967    1958    1961    1962
    1958    1961    1963    1958    1961    1964    1959    1958    1960
    1959    1958    1961    1960    1958    1961    1961    1964    1965
    1961    1964    1966    1961    1964    1967    1962    1961    1963
    1962    1961    1964    1963    1961    1964    1964    1967    1968
    1965    1964    1966    1965    1964    1967    1966    1964    1967
    1969    1973    1974    1969    1973    1983    1970    1969    1971
    1970    1969    1972    1970    1969    1973    1971    1969    1972
    1971    1969    1973    1972    1969    1973    1973    1974    1975
    1973    1974    1976    1973    1974    1977    1973    1983    1980
    1973    1983    1984    1974    1973    1983    1974    1977    1978
    1974    1977    1979    1974    1977    1980    1975    1974    1976
    1975    1974    1977    1976    1974    1977    1977    1980    1981
    1977    1980    1982    1977    1980    1983    1978    1977    1979
    1978    1977    1980    1979    1977    1980    1980    1983    1984
    1981    1980    1982    1981    1980    1983    1982    1980    1983
    1985    1989    1990    1985    1989    1999    1986    1985    1987
    1986    1985    1988    1986    1985    1989    1987    1985    1988
    1987    1985    1989    1988    1985    1989    1989    1990    1991
    1989    1990    1992    1989    1990    1993    1989    1999    1996
    1989    1999    2000    1990    1989    1999    1990    1993    1994
    1990    1993    1995    1990    1993    1996    1991    1990    1992
    1991    1990    1993    1992    1990    1993    1993    1996    1997
    1993    1996    1998    1993    1996    1999    1994    1993    1995
    1994    1993    1996    1995    1993    1996    1996    1999    2000
    1997    1996    1998    1997    1996    1999    1998    1996    1999
    2001    2005    2006    2001    2005    2015    2002    2001    2003
    2002    2001    2004    2002    2001    2005    2003    2001    2004
    2003    2001    2005    2004    2001    2005    2005    2006    2007
    2005    2006    2008    2005    2006    2009    2005    2015    2012
    2005    2015    2016    2006    2005    2015    2006    2009    2010
    2006    2009    2011    2006    2009    2012    2007    2006    2008
    2007    2006    2009    2008    2006    2009    2009    2012    2013
    2009    2012    2014    2009    2012    2015    2010    2009    2011
    2010    2009    2012    2011    2009    2012    2012    2015    2016
    2013    2012    2014    2013    2012    2015    2014    2012    2015
    2017    2021    2022    2017    2021    2031    2018    2017    2019
    2018    2017    2020    2018    2017    2021    2019    2017    2020
    2019    2017    2021    2020    2017    2021    2021    2022    2023
    2021    2022    2024    2021    2022    2025    2021    2031    2028
    2021    2031    2032    2022    2021    2031    2022    2025    2026
    2022    2025    2027    2022    2025    2028    2023    2022    2024
    2023    2022    2025    2024    2022    2025    2025    2028    2029
    2025    2028    2030    2025    2028    2031    2026    2025    2027
    2026    2025    2028    2027    2025    2028    2028    2031    2032
    2029    2028    2030    2029    2028    2031    2030    2028    2031
    2033    2037    2038    2033    2037    2047    2034    2033    2035
    2034    2033    2036    2034    2033    2037    2035    2033    2036
    2035    2033    2037    2036    2033    2037    2037    2038    2039
    2037    2038    2040    2037    2038    2041    2037    2047    2044
    2037    2047    2048    2038    2037    2047    2038    2041    2042
    2038    2041    2043    2038    2041    2044    2039    2038    2040
    2039    2038    2041    2040    2038    2041    2041    2044    2045
    2041    2044    2046    2041    2044    2047    2042    2041    2043
    2042    2041    2044    2043    2041    2044    2044    2047    2048
    2045    2044    2046    2045    2044    2047    2046    2044    2047
    2049    2053    2054    2049    2053    2063    2050    2049    2051
    2050    2049    2052    2050    2049    2053    2051    2049    2052
    2051    2049    2053    2052    2049    2053    2053    2054    2055
    2053    2054    2056    2053    2054    2057    2053    2063    2060
    2053    2063    2064    2054    2053    2063    2054    2057    2058
    2054    2057    2059    2054    2057    2060    2055    2054    2056
    2055    2054    2057    2056    2054    2057    2057    2060    2061
    2057    2060    2062    2057    2060    2063    2058    2057    2059
    2058    2057    2060    2059    2057    2060    2060    2063    2064
    2061    2060    2062    2061    2060    2063    2062    2060    2063
    2065    2069    2070    2065    2069    2079    2066    2065    2067
    2066    2065    2068    2066    2065    2069    2067    2065    2068
    2067    2065    2069    2068    2065    2069    2069    2070    2071
    2069    2070    2072    2069    2070    2073    2069    2079    2076
    2069    2079    2080    2070    2069    2079    2070    2073    2074
    2070    2073    2075    2070    2073    2076    2071    2070    2072
    2071    2070    2073    2072    2070    2073    2073    2076    2077
    2073    2076    2078    2073    2076    2079    2074    2073    2075
    2074    2073    2076    2075    2073    2076    2076    2079    2080
    2077    2076    2078    2077    2076    2079    2078    2076    2079
    2081    2085    2086    2081    2085    2095    2082    2081    2083
    2082    2081    2084    2082    2081    2085    2083    2081    2084
    2083    2081    2085    2084    2081    2085    2085    2086    2087
    2085    2086    2088    2085    2086    2089    2085    2095    2092
    2085    2095    2096    2086    2085    2095    2086    2089    2090
    2086    2089    2091    2086    2089    2092    2087    2086    2088
    2087    2086    2089    2088    2086    2089    2089    2092    2093
    2089    2092    2094    2089    2092    2095    2090    2089    2091
    2090    2089    2092    2091    2089    2092    2092    2095    2096
    2093    2092    2094    2093    2092    2095    2094    2092    2095
    2097    2101    2102    2097    2101    2111    2098    2097    2099
    2098    2097    2100    2098    2097    2101    2099    2097    2100
    2099    2097    2101    2100    2097    2101    2101    2102    2103
    2101    2102    2104    2101    2102    2105    2101    2111    2108
    2101    2111    2112    2102    2101    2111    2102    2105    2106
    2102    2105    2107    2102    2105    2108    2103    2102    2104
    2103    2102    2105    2104    2102    2105    2105    2108    2109
    2105    2108    2110    2105    2108    2111    2106    2105    2107
    2106    2105    2108    2107    2105    2108    2108    2111    2112
    2109    2108    2110    2109    2108    2111    2110    2108    2111
    2113    2117    2118    2113    2117    2127    2114    2113    2115
    2114    2113    2116    2114    2113    2117    2115    2113    2116
    2115    2113    2117    2116    2113    2117    2117    2118    2119
    2117    2118    2120    2117    2118    2121    2117    2127    2124
    2117    2127    2128    2118    2117    2127    2118    2121    2122
    2118    2121    2123    2118    2121    2124    2119    2118    2120
    2119    2118    2121    2120    2118    2121    2121    2124    2125
    2121    2124    2126    2121    2124    2127    2122    2121    2123
    2122    2121    2124    2123    2121    2124    2124    2127    2128
    2125    2124    2126    2125    2124    2127    2126    2124    2127
    2129    2133    2134    2129    2133    2143    2130    2129    2131
    2130    2129    2132    2130    2129    2133    2131    2129    2132
    2131    2129    2133    2132    2129    2133    2133    2134    2135
    2133    2134    2136    2133    2134    2137    2133    2143    2140
    2133    2143    2144    2134    2133    2143    2134    2137    2138
    2134    2137    2139    2134    2137    2140    2135    2134    2136
    2135    2134    2137    2136    2134    2137    2137    2140    2141
    2137    2140    2142    2137    2140    2143    2138    2137    2139
    2138    2137    2140    2139    2137    2140    2140    2143    2144
    2141    2140    2142    2141    2140    2143    2142    2140    2143
    2145    2149    2150    2145    2149    2159    2146    2145    2147
    2146    2145    2148    2146    2145    2149    2147    2145    2148
    2147    2145    2149    2148    2145    2149    2149    2150    2151
    2149    2150    2152    2149    2150    2153    2149    2159    2156
    2149    2159    2160    2150    2149    2159    2150    2153    2154
    2150    2153    2155    2150    2153    2156    2151    2150    2152
    2151    2150    2153    2152    2150    2153    2153    2156    2157
    2153    2156    2158    2153    2156    2159    2154    2153    2155
    2154    2153    2156    2155    2153    2156    2156    2159    2160
    2157    2156    2158    2157    2156    2159    2158    2156    2159
    2161    2165    2166    2161    2165    2175    2162    2161    2163
    2162    2161    2164    2162    2161    2165    2163    2161    2164
    2163    2161    2165    2164    2161    2165    2165    2166    2167
    2165    2166    2168    2165    2166    2169    2165    2175    2172
    2165    2175    2176    2166    2165    2175    2166    2169    2170
    2166    2169    2171    2166    2169    2172    2167    2166    2168
    2167    2166    2169    2168    2166    2169    2169    2172    2173
    2169    2172    2174    2169    2172    2175    2170    2169    2171
    2170    2169    2172    2171    2169    2172    2172    2175    2176
    2173    2172    2174    2173    2172    2175    2174    2172    2175
    2177    2181    2182    2177    2181    2191    2178    2177    2179
    2178    2177    2180    2178    2177    2181    2179    2177    2180
    2179    2177    2181    2180    2177    2181    2181    2182    2183
    2181    2182    2184    2181    2182    2185    2181    2191    2188
    2181    2191    2192    2182    2181    2191    2182    2185    2186
    2182    2185    2187    2182    2185    2188    2183    2182    2184
    2183    2182    2185    2184    2182    2185    2185    2188    2189
    2185    2188    2190    2185    2188    2191    2186    2185    2187
    2186    2185    2188    2187    2185    2188    2188    2191    2192
    2189    2188    2190    2189    2188    2191    2190    2188    2191
    2193    2197    2198    2193    2197    2207    2194    2193    2195
    2194    2193    2196    2194    2193    2197    2195    2193    2196
    2195    2193    2197    2196    2193    2197    2197    2198    2199
    2197    2198    2200    2197    2198    2201    2197    2207    2204
    2197    2207    2208    2198    2197    2207    2198    2201    2202
    2198    2201    2203    2198    2201    2204    2199    2198    2200
    2199    2198    2201    2200    2198    2201    2201    2204    2205
    2201    2204    2206    2201    2204    2207    2202    2201    2203
    2202    2201    2204    2203    2201    2204    2204    2207    2208
    2205    2204    2206    2205    2204    2207    2206    2204    2207
    2209    2213    2214    2209    2213    2223    2210    2209    2211
    2210    2209    2212    2210    2209    2213    2211    2209    2212
    2211    2209    2213    2212    2209    2213    2213    2214    2215
    2213    2214    2216    2213    2214    2217    2213    2223    2220
    2213    2223    2224    2214    2213    2223    2214    2217    2218
    2214    2217    2219    2214    2217    2220    2215    2214    2216
    2215    2214    2217    2216    2214    2217    2217    2220    2221
    2217    2220    2222    2217    2220    2223    2218    2217    2219
    2218    2217    2220    2219    2217    2220    2220    2223    2224
    2221    2220    2222    2221    2220    2223    2222    2220    2223
    2225    2229    2230    2225    2229    2239    2226    2225    2227
    2226    2225    2228    2226    2225    2229    2227    2225    2228
    2227    2225    2229    2228    2225    2229    2229    2230    2231
    2229    2230    2232    2229    2230    2233    2229    2239    2236
    2229    2239    2240    2230    2229    2239    2230    2233    2234
    2230    2233    2235    2230    2233    2236    2231    2230    2232
    2231    2230    2233    2232    2230    2233    2233    2236    2237
    2233    2236    2238    2233    2236    2239    2234    2233    2235
    2234    2233    2236    2235    2233    2236    2236    2239    2240
    2237    2236    2238    2237    2236    2239    2238    2236    2239
    2241    2245    2246    2241    2245    2255    2242    2241    2243
    2242    2241    2244    2242    2241    2245    2243    2241    2244
    2243    2241    2245    2244    2241    2245    2245    2246    2247
    2245    2246    2248    2245    2246    2249    2245    2255    2252
    2245    2255    2256    2246    2245    2255    2246    2249    2250
    2246    2249    2251    2246    2249    2252    2247    2246    2248
    2247    2246    2249    2248    2246    2249    2249    2252    2253
    2249    2252    2254    2249    2252    2255    2250    2249    2251
    2250    2249    2252    2251    2249    2252    2252    2255    2256
    2253    2252    2254    2253    2252    2255    2254    2252    2255
    2257    2261    2262    2257    2261    2271    2258    2257    2259
    2258    2257    2260    2258    2257    2261    2259    2257    2260
    2259    2257    2261    2260    2257    2261    2261    2262    2263
    2261    2262    2264    2261    2262    2265    2261    2271    2268
    2261    2271    2272    2262    2261    2271    2262    2265    2266
    2262    2265    2267    2262    2265    2268    2263    2262    2264
    2263    2262    2265    2264    2262    2265    2265    2268    2269
    2265    2268    2270    2265    2268    2271    2266    2265    2267
    2266    2265    2268    2267    2265    2268    2268    2271    2272
    2269    2268    2270    2269    2268    2271    2270    2268    2271
    2273    2277    2278    2273    2277    2287    2274    2273    2275
    2274    2273    2276    2274    2273    2277    2275    2273    2276
    2275    2273    2277    2276    2273    2277    2277    2278    2279
    2277    2278    2280    2277    2278    2281    2277    2287    2284
    2277    2287    2288    2278    2277    2287    2278    2281    2282
    2278    2281    2283    2278    2281    2284    2279    2278    2280
    2279    2278    2281    2280    2278    2281    2281    2284    2285
    2281    2284    2286    2281    2284    2287    2282    2281    2283
    2282    2281    2284    2283    2281    2284    2284    2287    2288
    2285    2284    2286    2285    2284    2287    2286    2284    2287
    2289    2293    2294    2289    2293    2303    2290    2289    2291
    2290    2289    2292    2290    2289    2293    2291    2289    2292
    2291    2289    2293    2292    2289    2293    2293    2294    2295
    2293    2294    2296    2293    2294    2297    2293    2303    2300
    2293    2303    2304    2294    2293    2303    2294    2297    2298
    2294    2297    2299    2294    2297    2300    2295    2294    2296
    2295    2294    2297    2296    2294    2297    2297    2300    2301
    2297    2300    2302    2297    2300    2303    2298    2297    2299
    2298    2297    2300    2299    2297    2300    2300    2303    2304
    2301    2300    2302    2301    2300    2303    2302    2300    2303
    2305    2309    2310    2305    2309    2319    2306    2305    2307
    2306    2305    2308    2306    2305    2309    2307    2305    2308
    2307    2305    2309    2308    2305    2309    2309    2310    2311
    2309    2310    2312    2309    2310    2313    2309    2319    2316
    2309    2319    2320    2310    2309    2319    2310    2313    2314
    2310    2313    2315    2310    2313    2316    2311    2310    2312
    2311    2310    2313    2312    2310    2313    2313    2316    2317
    2313    2316    2318    2313    2316    2319    2314    2313    2315
    2314    2313    2316    2315    2313    2316    2316    2319    2320
    2317    2316    2318    2317    2316    2319    2318    2316    2319
    2321    2325    2326    2321    2325    2335    2322    2321    2323
    2322    2321    2324    2322    2321    2325    2323    2321    2324
    2323    2321    2325    2324    2321    2325    2325    2326    2327
    2325    2326    2328    2325    2326    2329    2325    2335    2332
    2325    2335    2336    2326    2325    2335    2326    2329    2330
    2326    2329    2331    2326    2329    2332    2327    2326    2328
    2327    2326    2329    2328    2326    2329    2329    2332    2333
    2329    2332    2334    2329    2332    2335    2330    2329    2331
    2330    2329    2332    2331    2329    2332    2332    2335    2336
    2333    2332    2334    2333    2332    2335    2334    2332    2335
    2337    2341    2342    2337    2341    2351    2338    2337    2339
    2338    2337    2340    2338    2337    2341    2339    2337    2340
    2339    2337    2341    2340    2337    2341    2341    2342    2343
    2341    2342    2344    2341    2342    2345    2341    2351    2348
    2341    2351    2352    2342    2341    2351    2342    2345    2346
    2342    2345    2347    2342    2345    2348    2343    2342    2344
    2343    2342    2345    2344    2342    2345    2345    2348    2349
    2345    2348    2350    2345    2348    2351    2346    2345    2347
    2346    2345    2348    2347    2345    2348    2348    2351    2352
    2349    2348    2350    2349    2348    2351    2350    2348    2351
    2353    2357    2358    2353    2357    2367    2354    2353    2355
    2354    2353    2356    2354    2353    2357    2355    2353    2356
    2355    2353    2357    2356    2353    2357    2357    2358    2359
    2357    2358    2360    2357    2358    2361    2357    2367    2364
    2357    2367    2368    2358    2357    2367    2358    2361    2362
    2358    2361    2363    2358    2361    2364    2359    2358    2360
    2359    2358    2361    2360    2358    2361    2361    2364    2365
    2361    2364    2366    2361    2364    2367    2362    2361    2363
    2362    2361    2364    2363    2361    2364    2364    2367    2368
    2365    2364    2366    2365    2364    2367    2366    2364    2367
    2369    2373    2374    2369    2373    2383    2370    2369    2371
    2370    2369    2372    2370    2369    2373    2371    2369    2372
    2371    2369    2373    2372    2369    2373    2373    2374    2375
    2373    2374    2376    2373    2374    2377    2373    2383    2380
    2373    2383    2384    2374    2373    2383    2374    2377    2378
    2374    2377    2379    2374    2377    2380    2375    2374    2376
    2375    2374    2377    2376    2374    2377    2377    2380    2381
    2377    2380    2382    2377    2380    2383    2378    2377    2379
    2378    2377    2380    2379    2377    2380    2380    2383    2384
    2381    2380    2382    2381    2380    2383    2382    2380    2383
    2385    2389    2390    2385    2389    2399    2386    2385    2387
    2386    2385    2388    2386    2385    2389    2387    2385    2388
    2387    2385    2389    2388    2385    2389    2389    2390    2391
    2389    2390    2392    2389    2390    2393    2389    2399    2396
    2389    2399    2400    2390    2389    2399    2390    2393    2394
    2390    2393    2395    2390    2393    2396    2391    2390    2392
    2391    2390    2393    2392    2390    2393    2393    2396    2397
    2393    2396    2398    2393    2396    2399    2394    2393    2395
    2394    2393    2396    2395    2393    2396    2396    2399    2400
    2397    2396    2398    2397    2396    2399    2398    2396    2399
    2401    2405    2406    2401    2405    2415    2402    2401    2403
    2402    2401    2404    2402    2401    2405    2403    2401    2404
    2403    2401    2405    2404    2401    2405    2405    2406    2407
    2405    2406    2408    2405    2406    2409    2405    2415    2412
    2405    2415    2416    2406    2405    2415    2406    2409    2410
    2406    2409    2411    2406    2409    2412    2407    2406    2408
    2407    2406    2409    2408    2406    2409    2409    2412    2413
    2409    2412    2414    2409    2412    2415    2410    2409    2411
    2410    2409    2412    2411    2409    2412    2412    2415    2416
    2413    2412    2414    2413    2412    2415    2414    2412    2415
    2417    2421    2422    2417    2421    2431    2418    2417    2419
    2418    2417    2420    2418    2417    2421    2419    2417    2420
    2419    2417    2421    2420    2417    2421    2421    2422    2423
    2421    2422    2424    2421    2422    2425    2421    2431    2428
    2421    2431    2432    2422    2421    2431    2422    2425    2426
    2422    2425    2427    2422    2425    2428    2423    2422    2424
    2423    2422    2425    2424    2422    2425    2425    2428    2429
    2425    2428    2430    2425    2428    2431    2426    2425    2427
    2426    2425    2428    2427    2425    2428    2428    2431    2432
    2429    2428    2430    2429    2428    2431    2430    2428    2431
    2433    2437    2438    2433    2437    2447    2434    2433    2435
    2434    2433    2436    2434    2433    2437    2435    2433    2436
    2435    2433    2437    2436    2433    2437    2437    2438    2439
    2437    2438    2440    2437    2438    2441    2437    2447    2444
    2437    2447    2448    2438    2437    2447    2438    2441    2442
    2438    2441    2443    2438    2441    2444    2439    2438    2440
    2439    2438    2441    2440    2438    2441    2441    2444    2445
    2441    2444    2446    2441    2444    2447    2442    2441    2443
    2442    2441    2444    2443    2441    2444    2444    2447    2448
    2445    2444    2446    2445    2444    2447    2446    2444    2447
    2449    2453    2454    2449    2453    2463    2450    2449    2451
    2450    2449    2452    2450    2449    2453    2451    2449    2452
    2451    2449    2453    2452    2449    2453    2453    2454    2455
    2453    2454    2456    2453    2454    2457    2453    2463    2460
    2453    2463    2464    2454    2453    2463    2454    2457    2458
    2454    2457    2459    2454    2457    2460    2455    2454    2456
    2455    2454    2457    2456    2454    2457    2457    2460    2461
    2457    2460    2462    2457    2460    2463    2458    2457    2459
    2458    2457    2460    2459    2457    2460    2460    2463    2464
    2461    2460    2462    2461    2460    2463    2462    2460    2463
    2465    2469    2470    2465    2469    2479    2466    2465    2467
    2466    2465    2468    2466    2465    2469    2467    2465    2468
    2467    2465    2469    2468    2465    2469    2469    2470    2471
    2469    2470    2472    2469    2470    2473    2469    2479    2476
    2469    2479    2480    2470    2469    2479    2470    2473    2474
    2470    2473    2475    2470    2473    2476    2471    2470    2472
    2471    2470    2473    2472    2470    2473    2473    2476    2477
    2473    2476    2478    2473    2476    2479    2474    2473    2475
    2474    2473    2476    2475    2473    2476    2476    2479    2480
    2477    2476    2478    2477    2476    2479    2478    2476    2479
    2481    2485    2486    2481    2485    2495    2482    2481    2483
    2482    2481    2484    2482    2481    2485    2483    2481    2484
    2483    2481    2485    2484    2481    2485    2485    2486    2487
    2485    2486    2488    2485    2486    2489    2485    2495    2492
    2485    2495    2496    2486    2485    2495    2486    2489    2490
    2486    2489    2491    2486    2489    2492    2487    2486    2488
    2487    2486    2489    2488    2486    2489    2489    2492    2493
    2489    2492    2494    2489    2492    2495    2490    2489    2491
    2490    2489    2492    2491    2489    2492    2492    2495    2496
    2493    2492    2494    2493    2492    2495    2494    2492    2495
    2497    2501    2502    2497    2501    2511    2498    2497    2499
    2498    2497    2500    2498    2497    2501    2499    2497    2500
    2499    2497    2501    2500    2497    2501    2501    2502    2503
    2501    2502    2504    2501    2502    2505    2501    2511    2508
    2501    2511    2512    2502    2501    2511    2502    2505    2506
    2502    2505    2507    2502    2505    2508    2503    2502    2504
    2503    2502    2505    2504    2502    2505    2505    2508    2509
    2505    2508    2510    2505    2508    2511    2506    2505    2507
    2506    2505    2508    2507    2505    2508    2508    2511    2512
    2509    2508    2510    2509    2508    2511    2510    2508    2511
    2513    2517    2518    2513    2517    2527    2514    2513    2515
    2514    2513    2516    2514    2513    2517    2515    2513    2516
    2515    2513    2517    2516    2513    2517    2517    2518    2519
    2517    2518    2520    2517    2518    2521    2517    2527    2524
    2517    2527    2528    2518    2517    2527    2518    2521    2522
    2518    2521    2523    2518    2521    2524    2519    2518    2520
    2519    2518    2521    2520    2518    2521    2521    2524    2525
    2521    2524    2526    2521    2524    2527    2522    2521    2523
    2522    2521    2524    2523    2521    2524    2524    2527    2528
    2525    2524    2526    2525    2524    2527    2526    2524    2527
    2529    2533    2534    2529    2533    2543    2530    2529    2531
    2530    2529    2532    2530    2529    2533    2531    2529    2532
    2531    2529    2533    2532    2529    2533    2533    2534    2535
    2533    2534    2536    2533    2534    2537    2533    2543    2540
    2533    2543    2544    2534    2533    2543    2534    2537    2538
    2534    2537    2539    2534    2537    2540    2535    2534    2536
    2535    2534    2537    2536    2534    2537    2537    2540    2541
    2537    2540    2542    2537    2540    2543    2538    2537    2539
    2538    2537    2540    2539    2537    2540    2540    2543    2544
    2541    2540    2542    2541    2540    2543    2542    2540    2543
    2545    2549    2550    2545    2549    2559    2546    2545    2547
    2546    2545    2548    2546    2545    2549    2547    2545    2548
    2547    2545    2549    2548    2545    2549    2549    2550    2551
    2549    2550    2552    2549    2550    2553    2549    2559    2556
    2549    2559    2560    2550    2549    2559    2550    2553    2554
    2550    2553    2555    2550    2553    2556    2551    2550    2552
    2551    2550    2553    2552    2550    2553    2553    2556    2557
    2553    2556    2558    2553    2556    2559    2554    2553    2555
    2554    2553    2556    2555    2553    2556    2556    2559    2560
    2557    2556    2558    2557    2556    2559    2558    2556    2559
    2561    2565    2566    2561    2565    2575    2562    2561    2563
    2562    2561    2564    2562    2561    2565    2563    2561    2564
    2563    2561    2565    2564    2561    2565    2565    2566    2567
    2565    2566    2568    2565    2566    2569    2565    2575    2572
    2565    2575    2576    2566    2565    2575    2566    2569    2570
    2566    2569    2571    2566    2569    2572    2567    2566    2568
    2567    2566    2569    2568    2566    2569    2569    2572    2573
    2569    2572    2574    2569    2572    2575    2570    2569    2571
    2570    2569    2572    2571    2569    2572    2572    2575    2576
    2573    2572    2574    2573    2572    2575    2574    2572    2575
    2577    2581    2582    2577    2581    2591    2578    2577    2579
    2578    2577    2580    2578    2577    2581    2579    2577    2580
    2579    2577    2581    2580    2577    2581    2581    2582    2583
    2581    2582    2584    2581    2582    2585    2581    2591    2588
    2581    2591    2592    2582    2581    2591    2582    2585    2586
    2582    2585    2587    2582    2585    2588    2583    2582    2584
    2583    2582    2585    2584    2582    2585    2585    2588    2589
    2585    2588    2590    2585    2588    2591    2586    2585    2587
    2586    2585    2588    2587    2585    2588    2588    2591    2592
    2589    2588    2590    2589    2588    2591    2590    2588    2591
    2593    2597    2598    2593    2597    2607    2594    2593    2595
    2594    2593    2596    2594    2593    2597    2595    2593    2596
    2595    2593    2597    2596    2593    2597    2597    2598    2599
    2597    2598    2600    2597    2598    2601    2597    2607    2604
    2597    2607    2608    2598    2597    2607    2598    2601    2602
    2598    2601    2603    2598    2601    2604    2599    2598    2600
    2599    2598    2601    2600    2598    2601    2601    2604    2605
    2601    2604    2606    2601    2604    2607    2602    2601    2603
    2602    2601    2604    2603    2601    2604    2604    2607    2608
    2605    2604    2606    2605    2604    2607    2606    2604    2607
    2609    2613    2614    2609    2613    2623    2610    2609    2611
    2610    2609    2612    2610    2609    2613    2611    2609    2612
    2611    2609    2613    2612    2609    2613    2613    2614    2615
    2613    2614    2616    2613    2614    2617    2613    2623    2620
    2613    2623    2624    2614    2613    2623    2614    2617    2618
    2614    2617    2619    2614    2617    2620    2615    2614    2616
    2615    2614    2617    2616    2614    2617    2617    2620    2621
    2617    2620    2622    2617    2620    2623    2618    2617    2619
    2618    2617    2620    2619    2617    2620    2620    2623    2624
    2621    2620    2622    2621    2620    2623    2622    2620    2623
    2625    2629    2630    2625    2629    2639    2626    2625    2627
    2626    2625    2628    2626    2625    2629    2627    2625    2628
    2627    2625    2629    2628    2625    2629    2629    2630    2631
    2629    2630    2632    2629    2630    2633    2629    2639    2636
    2629    2639    2640    2630    2629    2639    2630    2633    2634
    2630    2633    2635    2630    2633    2636    2631    2630    2632
    2631    2630    2633    2632    2630    2633    2633    2636    2637
    2633    2636    2638    2633    2636    2639    2634    2633    2635
    2634    2633    2636    2635    2633    2636    2636    2639    2640
    2637    2636    2638    2637    2636    2639    2638    2636    2639
    2641    2645    2646    2641    2645    2655    2642    2641    2643
    2642    2641    2644    2642    2641    2645    2643    2641    2644
    2643    2641    2645    2644    2641    2645    2645    2646    2647
    2645    2646    2648    2645    2646    2649    2645    2655    2652
    2645    2655    2656    2646    2645    2655    2646    2649    2650
    2646    2649    2651    2646    2649    2652    2647    2646    2648
    2647    2646    2649    2648    2646    2649    2649    2652    2653
    2649    2652    2654    2649    2652    2655    2650    2649    2651
    2650    2649    2652    2651    2649    2652    2652    2655    2656
    2653    2652    2654    2653    2652    2655    2654    2652    2655
    2657    2661    2662    2657    2661    2671    2658    2657    2659
    2658    2657    2660    2658    2657    2661    2659    2657    2660
    2659    2657    2661    2660    2657    2661    2661    2662    2663
    2661    2662    2664    2661    2662    2665    2661    2671    2668
    2661    2671    2672    2662    2661    2671    2662    2665    2666
    2662    2665    2667    2662    2665    2668    2663    2662    2664
    2663    2662    2665    2664    2662    2665    2665    2668    2669
    2665    2668    2670    2665    2668    2671    2666    2665    2667
    2666    2665    2668    2667    2665    2668    2668    2671    2672
    2669    2668    2670    2669    2668    2671    2670    2668    2671
    2673    2677    2678    2673    2677    2687    2674    2673    2675
    2674    2673    2676    2674    2673    2677    2675    2673    2676
    2675    2673    2677    2676    2673    2677    2677    2678    2679
    2677    2678    2680    2677    2678    2681    2677    2687    2684
    2677    2687    2688    2678    2677    2687    2678    2681    2682
    2678    2681    2683    2678    2681    2684    2679    2678    2680
    2679    2678    2681    2680    2678    2681    2681    2684    2685
    2681    2684    2686    2681    2684    2687    2682    2681    2683
    2682    2681    2684    2683    2681    2684    2684    2687    2688
    2685    2684    2686    2685    2684    2687    2686    2684    2687
    2689    2693    2694    2689    2693    2703    2690    2689    2691
    2690    2689    2692    2690    2689    2693    2691    2689    2692
    2691    2689    2693    2692    2689    2693    2693    2694    2695
    2693    2694    2696    2693    2694    2697    2693    2703    2700
    2693    2703    2704    2694    2693    2703    2694    2697    2698
    2694    2697    2699    2694    2697    2700    2695    2694    2696
    2695    2694    2697    2696    2694    2697    2697    2700    2701
    2697    2700    2702    2697    2700    2703    2698    2697    2699
    2698    2697    2700    2699    2697    2700    2700    2703    2704
    2701    2700    2702    2701    2700    2703    2702    2700    2703
    2705    2709    2710    2705    2709    2719    2706    2705    2707
    2706    2705    2708    2706    2705    2709    2707    2705    2708
    2707    2705    2709    2708    2705    2709    2709    2710    2711
    2709    2710    2712    2709    2710    2713    2709    2719    2716
    2709    2719    2720    2710    2709    2719    2710    2713    2714
    2710    2713    2715    2710    2713    2716    2711    2710    2712
    2711    2710    2713    2712    2710    2713    2713    2716    2717
    2713    2716    2718    2713    2716    2719    2714    2713    2715
    2714    2713    2716    2715    2713    2716    2716    2719    2720
    2717    2716    2718    2717    2716    2719    2718    2716    2719
    2721    2725    2726    2721    2725    2735    2722    2721    2723
    2722    2721    2724    2722    2721    2725    2723    2721    2724
    2723    2721    2725    2724    2721    2725    2725    2726    2727
    2725    2726    2728    2725    2726    2729    2725    2735    2732
    2725    2735    2736    2726    2725    2735    2726    2729    2730
    2726    2729    2731    2726    2729    2732    2727    2726    2728
    2727    2726    2729    2728    2726    2729    2729    2732    2733
    2729    2732    2734    2729    2732    2735    2730    2729    2731
    2730    2729    2732    2731    2729    2732    2732    2735    2736
    2733    2732    2734    2733    2732    2735    2734    2732    2735
    2737    2741    2742    2737    2741    2751    2738    2737    2739
    2738    2737    2740    2738    2737    2741    2739    2737    2740
    2739    2737    2741    2740    2737    2741    2741    2742    2743
    2741    2742    2744    2741    2742    2745    2741    2751    2748
    2741    2751    2752    2742    2741    2751    2742    2745    2746
    2742    2745    2747    2742    2745    2748    2743    2742    2744
    2743    2742    2745    2744    2742    2745    2745    2748    2749
    2745    2748    2750    2745    2748    2751    2746    2745    2747
    2746    2745    2748    2747    2745    2748    2748    2751    2752
    2749    2748    2750    2749    2748    2751    2750    2748    2751
    2753    2757    2758    2753    2757    2767    2754    2753    2755
    2754    2753    2756    2754    2753    2757    2755    2753    2756
    2755    2753    2757    2756    2753    2757    2757    2758    2759
    2757    2758    2760    2757    2758    2761    2757    2767    2764
    2757    2767    2768    2758    2757    2767    2758    2761    2762
    2758    2761    2763    2758    2761    2764    2759    2758    2760
    2759    2758    2761    2760    2758    2761    2761    2764    2765
    2761    2764    2766    2761    2764    2767    2762    2761    2763
    2762    2761    2764    2763    2761    2764    2764    2767    2768
    2765    2764    2766    2765    2764    2767    2766    2764    2767
    2769    2773    2774    2769    2773    2783    2770    2769    2771
    2770    2769    2772    2770    2769    2773    2771    2769    2772
    2771    2769    2773    2772    2769    2773    2773    2774    2775
    2773    2774    2776    2773    2774    2777    2773    2783    2780
    2773    2783    2784    2774    2773    2783    2774    2777    2778
    2774    2777    2779    2774    2777    2780    2775    2774    2776
    2775    2774    2777    2776    2774    2777    2777    2780    2781
    2777    2780    2782    2777    2780    2783    2778    2777    2779
    2778    2777    2780    2779    2777    2780    2780    2783    2784
    2781    2780    2782    2781    2780    2783    2782    2780    2783
    2785    2789    2790    2785    2789    2799    2786    2785    2787
    2786    2785    2788    2786    2785    2789    2787    2785    2788
    2787    2785    2789    2788    2785    2789    2789    2790    2791
    2789    2790    2792    2789    2790    2793    2789    2799    2796
    2789    2799    2800    2790    2789    2799    2790    2793    2794
    2790    2793    2795    2790    2793    2796    2791    2790    2792
    2791    2790    2793    2792    2790    2793    2793    2796    2797
    2793    2796    2798    2793    2796    2799    2794    2793    2795
    2794    2793    2796    2795    2793    2796    2796    2799    2800
    2797    2796    2798    2797    2796    2799    2798    2796    2799
    2801    2805    2806    2801    2805    2815    2802    2801    2803
    2802    2801    2804    2802    2801    2805    2803    2801    2804
    2803    2801    2805    2804    2801    2805    2805    2806    2807
    2805    2806    2808    2805    2806    2809    2805    2815    2812
    2805    2815    2816    2806    2805    2815    2806    2809    2810
    2806    2809    2811    2806    2809    2812    2807    2806    2808
    2807    2806    2809    2808    2806    2809    2809    2812    2813
    2809    2812    2814    2809    2812    2815    2810    2809    2811
    2810    2809    2812    2811    2809    2812    2812    2815    2816
    2813    2812    2814    2813    2812    2815    2814    2812    2815
    2817    2821    2822    2817    2821    2831    2818    2817    2819
    2818    2817    2820    2818    2817    2821    2819    2817    2820
    2819    2817    2821    2820    2817    2821    2821    2822    2823
    2821    2822    2824    2821    2822    2825    2821    2831    2828
    2821    2831    2832    2822    2821    2831    2822    2825    2826
    2822    2825    2827    2822    2825    2828    2823    2822    2824
    2823    2822    2825    2824    2822    2825    2825    2828    2829
    2825    2828    2830    2825    2828    2831    2826    2825    2827
    2826    2825    2828    2827    2825    2828    2828    2831    2832
    2829    2828    2830    2829    2828    2831    2830    2828    2831
    2833    2837    2838    2833    2837    2847    2834    2833    2835
    2834    2833    2836    2834    2833    2837    2835    2833    2836
    2835    2833    2837    2836    2833    2837    2837    2838    2839
    2837    2838    2840    2837    2838    2841    2837    2847    2844
    2837    2847    2848    2838    2837    2847    2838    2841    2842
    2838    2841    2843    2838    2841    2844    2839    2838    2840
    2839    2838    2841    2840    2838    2841    2841    2844    2845
    2841    2844    2846    2841    2844    2847    2842    2841    2843
    2842    2841    2844    2843    2841    2844    2844    2847    2848
    2845    2844    2846    2845    2844    2847    2846    2844    2847
    2849    2853    2854    2849    2853    2863    2850    2849    2851
    2850    2849    2852    2850    2849    2853    2851    2849    2852
    2851    2849    2853    2852    2849    2853    2853    2854    2855
    2853    2854    2856    2853    2854    2857    2853    2863    2860
    2853    2863    2864    2854    2853    2863    2854    2857    2858
    2854    2857    2859    2854    2857    2860    2855    2854    2856
    2855    2854    2857    2856    2854    2857    2857    2860    2861
    2857    2860    2862    2857    2860    2863    2858    2857    2859
    2858    2857    2860    2859    2857    2860    2860    2863    2864
    2861    2860    2862    2861    2860    2863    2862    2860    2863
    2865    2869    2870    2865    2869    2879    2866    2865    2867
    2866    2865    2868    2866    2865    2869    2867    2865    2868
    2867    2865    2869    2868    2865    2869    2869    2870    2871
    2869    2870    2872    2869    2870    2873    2869    2879    2876
    2869    2879    2880    2870    2869    2879    2870    2873    2874
    2870    2873    2875    2870    2873    2876    2871    2870    2872
    2871    2870    2873    2872    2870    2873    2873    2876    2877
    2873    2876    2878    2873    2876    2879    2874    2873    2875
    2874    2873    2876    2875    2873    2876    2876    2879    2880
    2877    2876    2878    2877    2876    2879    2878    2876    2879
    2881    2885    2886    2881    2885    2895    2882    2881    2883
    2882    2881    2884    2882    2881    2885    2883    2881    2884
    2883    2881    2885    2884    2881    2885    2885    2886    2887
    2885    2886    2888    2885    2886    2889    2885    2895    2892
    2885    2895    2896    2886    2885    2895    2886    2889    2890
    2886    2889    2891    2886    2889    2892    2887    2886    2888
    2887    2886    2889    2888    2886    2889    2889    2892    2893
    2889    2892    2894    2889    2892    2895    2890    2889    2891
    2890    2889    2892    2891    2889    2892    2892    2895    2896
    2893    2892    2894    2893    2892    2895    2894    2892    2895
    2897    2901    2902    2897    2901    2911    2898    2897    2899
    2898    2897    2900    2898    2897    2901    2899    2897    2900
    2899    2897    2901    2900    2897    2901    2901    2902    2903
    2901    2902    2904    2901    2902    2905    2901    2911    2908
    2901    2911    2912    2902    2901    2911    2902    2905    2906
    2902    2905    2907    2902    2905    2908    2903    2902    2904
    2903    2902    2905    2904    2902    2905    2905    2908    2909
    2905    2908    2910    2905    2908    2911    2906    2905    2907
    2906    2905    2908    2907    2905    2908    2908    2911    2912
    2909    2908    2910    2909    2908    2911    2910    2908    2911
    2913    2917    2918    2913    2917    2927    2914    2913    2915
    2914    2913    2916    2914    2913    2917    2915    2913    2916
    2915    2913    2917    2916    2913    2917    2917    2918    2919
    2917    2918    2920    2917    2918    2921    2917    2927    2924
    2917    2927    2928    2918    2917    2927    2918    2921    2922
    2918    2921    2923    2918    2921    2924    2919    2918    2920
    2919    2918    2921    2920    2918    2921    2921    2924    2925
    2921    2924    2926    2921    2924    2927    2922    2921    2923
    2922    2921    2924    2923    2921    2924    2924    2927    2928
    2925    2924    2926    2925    2924    2927    2926    2924    2927
    2929    2933    2934    2929    2933    2943    2930    2929    2931
    2930    2929    2932    2930    2929    2933    2931    2929    2932
    2931    2929    2933    2932    2929    2933    2933    2934    2935
    2933    2934    2936    2933    2934    2937    2933    2943    2940
    2933    2943    2944    2934    2933    2943    2934    2937    2938
    2934    2937    2939    2934    2937    2940    2935    2934    2936
    2935    2934    2937    2936    2934    2937    2937    2940    2941
    2937    2940    2942    2937    2940    2943    2938    2937    2939
    2938    2937    2940    2939    2937    2940    2940    2943    2944
    2941    2940    2942    2941    2940    2943    2942    2940    2943
    2945    2949    2950    2945    2949    2959    2946    2945    2947
    2946    2945    2948    2946    2945    2949    2947    2945    2948
    2947    2945    2949    2948    2945    2949    2949    2950    2951
    2949    2950    2952    2949    2950    2953    2949    2959    2956
    2949    2959    2960    2950    2949    2959    2950    2953    2954
    2950    2953    2955    2950    2953    2956    2951    2950    2952
    2951    2950    2953    2952    2950    2953    2953    2956    2957
    2953    2956    2958    2953    2956    2959    2954    2953    2955
    2954    2953    2956    2955    2953    2956    2956    2959    2960
    2957    2956    2958    2957    2956    2959    2958    2956    2959
    2961    2965    2966    2961    2965    2975    2962    2961    2963
    2962    2961    2964    2962    2961    2965    2963    2961    2964
    2963    2961    2965    2964    2961    2965    2965    2966    2967
    2965    2966    2968    2965    2966    2969    2965    2975    2972
    2965    2975    2976    2966    2965    2975    2966    2969    2970
    2966    2969    2971    2966    2969    2972    2967    2966    2968
    2967    2966    2969    2968    2966    2969    2969    2972    2973
    2969    2972    2974    2969    2972    2975    2970    2969    2971
    2970    2969    2972    2971    2969    2972    2972    2975    2976
    2973    2972    2974    2973    2972    2975    2974    2972    2975
    2977    2981    2982    2977    2981    2991    2978    2977    2979
    2978    2977    2980    2978    2977    2981    2979    2977    2980
    2979    2977    2981    2980    2977    2981    2981    2982    2983
    2981    2982    2984    2981    2982    2985    2981    2991    2988
    2981    2991    2992    2982    2981    2991    2982    2985    2986
    2982    2985    2987    2982    2985    2988    2983    2982    2984
    2983    2982    2985    2984    2982    2985    2985    2988    2989
    2985    2988    2990    2985    2988    2991    2986    2985    2987
    2986    2985    2988    2987    2985    2988    2988    2991    2992
    2989    2988    2990    2989    2988    2991    2990    2988    2991
    2993    2997    2998    2993    2997    3007    2994    2993    2995
    2994    2993    2996    2994    2993    2997    2995    2993    2996
    2995    2993    2997    2996    2993    2997    2997    2998    2999
    2997    2998    3000    2997    2998    3001    2997    3007    3004
    2997    3007    3008    2998    2997    3007    2998    3001    3002
    2998    3001    3003    2998    3001    3004    2999    2998    3000
    2999    2998    3001    3000    2998    3001    3001    3004    3005
    3001    3004    3006    3001    3004    3007    3002    3001    3003
    3002    3001    3004    3003    3001    3004    3004    3007    3008
    3005    3004    3006    3005    3004    3007    3006    3004    3007
    3009    3013    3014    3009    3013    3023    3010    3009    3011
    3010    3009    3012    3010    3009    3013    3011    3009    3012
    3011    3009    3013    3012    3009    3013    3013    3014    3015
    3013    3014    3016    3013    3014    3017    3013    3023    3020
    3013    3023    3024    3014    3013    3023    3014    3017    3018
    3014    3017    3019    3014    3017    3020    3015    3014    3016
    3015    3014    3017    3016    3014    3017    3017    3020    3021
    3017    3020    3022    3017    3020    3023    3018    3017    3019
    3018    3017    3020    3019    3017    3020    3020    3023    3024
    3021    3020    3022    3021    3020    3023    3022    3020    3023
    3025    3029    3030    3025    3029    3039    3026    3025    3027
    3026    3025    3028    3026    3025    3029    3027    3025    3028
    3027    3025    3029    3028    3025    3029    3029    3030    3031
    3029    3030    3032    3029    3030    3033    3029    3039    3036
    3029    3039    3040    3030    3029    3039    3030    3033    3034
    3030    3033    3035    3030    3033    3036    3031    3030    3032
    3031    3030    3033    3032    3030    3033    3033    3036    3037
    3033    3036    3038    3033    3036    3039    3034    3033    3035
    3034    3033    3036    3035    3033    3036    3036    3039    3040
    3037    3036    3038    3037    3036    3039    3038    3036    3039
    3041    3045    3046    3041    3045    3055    3042    3041    3043
    3042    3041    3044    3042    3041    3045    3043    3041    3044
    3043    3041    3045    3044    3041    3045    3045    3046    3047
    3045    3046    3048    3045    3046    3049    3045    3055    3052
    3045    3055    3056    3046    3045    3055    3046    3049    3050
    3046    3049    3051    3046    3049    3052    3047    3046    3048
    3047    3046    3049    3048    3046    3049    3049    3052    3053
    3049    3052    3054    3049    3052    3055    3050    3049    3051
    3050    3049    3052    3051    3049    3052    3052    3055    3056
    3053    3052    3054    3053    3052    3055    3054    3052    3055
    3057    3061    3062    3057    3061    3071    3058    3057    3059
    3058    3057    3060    3058    3057    3061    3059    3057    3060
    3059    3057    3061    3060    3057    3061    3061    3062    3063
    3061    3062    3064    3061    3062    3065    3061    3071    3068
    3061    3071    3072    3062    3061    3071    3062    3065    3066
    3062    3065    3067    3062    3065    3068    3063    3062    3064
    3063    3062    3065    3064    3062    3065    3065    3068    3069
    3065    3068    3070    3065    3068    3071    3066    3065    3067
    3066    3065    3068    3067    3065    3068    3068    3071    3072
    3069    3068    3070    3069    3068    3071    3070    3068    3071
    3073    3077    3078    3073    3077    3087    3074    3073    3075
    3074    3073    3076    3074    3073    3077    3075    3073    3076
    3075    3073    3077    3076    3073    3077    3077    3078    3079
    3077    3078    3080    3077    3078    3081    3077    3087    3084
    3077    3087    3088    3078    3077    3087    3078    3081    3082
    3078    3081    3083    3078    3081    3084    3079    3078    3080
    3079    3078    3081    3080    3078    3081    3081    3084    3085
    3081    3084    3086    3081    3084    3087    3082    3081    3083
    3082    3081    3084    3083    3081    3084    3084    3087    3088
    3085    3084    3086    3085    3084    3087    3086    3084    3087
    3089    3093    3094    3089    3093    3103    3090    3089    3091
    3090    3089    3092    3090    3089    3093    3091    3089    3092
    3091    3089    3093    3092    3089    3093    3093    3094    3095
    3093    3094    3096    3093    3094    3097    3093    3103    3100
    3093    3103    3104    3094    3093    3103    3094    3097    3098
    3094    3097    3099    3094    3097    3100    3095    3094    3096
    3095    3094    3097    3096    3094    3097    3097    3100    3101
    3097    3100    3102    3097    3100    3103    3098    3097    3099
    3098    3097    3100    3099    3097    3100    3100    3103    3104
    3101    3100    3102    3101    3100    3103    3102    3100    3103
    3105    3109    3110    3105    3109    3119    3106    3105    3107
    3106    3105    3108    3106    3105    3109    3107    3105    3108
    3107    3105    3109    3108    3105    3109    3109    3110    3111
    3109    3110    3112    3109    3110    3113    3109    3119    3116
    3109    3119    3120    3110    3109    3119    3110    3113    3114
    3110    3113    3115    3110    3113    3116    3111    3110    3112
    3111    3110    3113    3112    3110    3113    3113    3116    3117
    3113    3116    3118    3113    3116    3119    3114    3113    3115
    3114    3113    3116    3115    3113    3116    3116    3119    3120
    3117    3116    3118    3117    3116    3119    3118    3116    3119
    3121    3125    3126    3121    3125    3135    3122    3121    3123
    3122    3121    3124    3122    3121    3125    3123    3121    3124
    3123    3121    3125    3124    3121    3125    3125    3126    3127
    3125    3126    3128    3125    3126    3129    3125    3135    3132
    3125    3135    3136    3126    3125    3135    3126    3129    3130
    3126    3129    3131    3126    3129    3132    3127    3126    3128
    3127    3126    3129    3128    3126    3129    3129    3132    3133
    3129    3132    3134    3129    3132    3135    3130    3129    3131
    3130    3129    3132    3131    3129    3132    3132    3135    3136
    3133    3132    3134    3133    3132    3135    3134    3132    3135
    3137    3141    3142    3137    3141    3151    3138    3137    3139
    3138    3137    3140    3138    3137    3141    3139    3137    3140
    3139    3137    3141    3140    3137    3141    3141    3142    3143
    3141    3142    3144    3141    3142    3145    3141    3151    3148
    3141    3151    3152    3142    3141    3151    3142    3145    3146
    3142    3145    3147    3142    3145    3148    3143    3142    3144
    3143    3142    3145    3144    3142    3145    3145    3148    3149
    3145    3148    3150    3145    3148    3151    3146    3145    3147
    3146    3145    3148    3147    3145    3148    3148    3151    3152
    3149    3148    3150    3149    3148    3151    3150    3148    3151
    3153    3157    3158    3153    3157    3167    3154    3153    3155
    3154    3153    3156    3154    3153    3157    3155    3153    3156
    3155    3153    3157    3156    3153    3157    3157    3158    3159
    3157    3158    3160    3157    3158    3161    3157    3167    3164
    3157    3167    3168    3158    3157    3167    3158    3161    3162
    3158    3161    3163    3158    3161    3164    3159    3158    3160
    3159    3158    3161    3160    3158    3161    3161    3164    3165
    3161    3164    3166    3161    3164    3167    3162    3161    3163
    3162    3161    3164    3163    3161    3164    3164    3167    3168
    3165    3164    3166    3165    3164    3167    3166    3164    3167
    3169    3173    3174    3169    3173    3183    3170    3169    3171
    3170    3169    3172    3170    3169    3173    3171    3169    3172
    3171    3169    3173    3172    3169    3173    3173    3174    3175
    3173    3174    3176    3173    3174    3177    3173    3183    3180
    3173    3183    3184    3174    3173    3183    3174    3177    3178
    3174    3177    3179    3174    3177    3180    3175    3174    3176
    3175    3174    3177    3176    3174    3177    3177    3180    3181
    3177    3180    3182    3177    3180    3183    3178    3177    3179
    3178    3177    3180    3179    3177    3180    3180    3183    3184
    3181    3180    3182    3181    3180    3183    3182    3180    3183
    3185    3189    3190    3185    3189    3199    3186    3185    3187
    3186    3185    3188    3186    3185    3189    3187    3185    3188
    3187    3185    3189    3188    3185    3189    3189    3190    3191
    3189    3190    3192    3189    3190    3193    3189    3199    3196
    3189    3199    3200    3190    3189    3199    3190    3193    3194
    3190    3193    3195    3190    3193    3196    3191    3190    3192
    3191    3190    3193    3192    3190    3193    3193    3196    3197
    3193    3196    3198    3193    3196    3199    3194    3193    3195
    3194    3193    3196    3195    3193    3196    3196    3199    3200
    3197    3196    3198    3197    3196    3199    3198    3196    3199
    3201    3205    3206    3201    3205    3215    3202    3201    3203
    3202    3201    3204    3202    3201    3205    3203    3201    3204
    3203    3201    3205    3204    3201    3205    3205    3206    3207
    3205    3206    3208    3205    3206    3209    3205    3215    3212
    3205    3215    3216    3206    3205    3215    3206    3209    3210
    3206    3209    3211    3206    3209    3212    3207    3206    3208
    3207    3206    3209    3208    3206    3209    3209    3212    3213
    3209    3212    3214    3209    3212    3215    3210    3209    3211
    3210    3209    3212    3211    3209    3212    3212    3215    3216
    3213    3212    3214    3213    3212    3215    3214    3212    3215
    3217    3221    3222    3217    3221    3231    3218    3217    3219
    3218    3217    3220    3218    3217    3221    3219    3217    3220
    3219    3217    3221    3220    3217    3221    3221    3222    3223
    3221    3222    3224    3221    3222    3225    3221    3231    3228
    3221    3231    3232    3222    3221    3231    3222    3225    3226
    3222    3225    3227    3222    3225    3228    3223    3222    3224
    3223    3222    3225    3224    3222    3225    3225    3228    3229
    3225    3228    3230    3225    3228    3231    3226    3225    3227
    3226    3225    3228    3227    3225    3228    3228    3231    3232
    3229    3228    3230    3229    3228    3231    3230    3228    3231
    3233    3237    3238    3233    3237    3247    3234    3233    3235
    3234    3233    3236    3234    3233    3237    3235    3233    3236
    3235    3233    3237    3236    3233    3237    3237    3238    3239
    3237    3238    3240    3237    3238    3241    3237    3247    3244
    3237    3247    3248    3238    3237    3247    3238    3241    3242
    3238    3241    3243    3238    3241    3244    3239    3238    3240
    3239    3238    3241    3240    3238    3241    3241    3244    3245
    3241    3244    3246    3241    3244    3247    3242    3241    3243
    3242    3241    3244    3243    3241    3244    3244    3247    3248
    3245    3244    3246    3245    3244    3247    3246    3244    3247
    3249    3253    3254    3249    3253    3263    3250    3249    3251
    3250    3249    3252    3250    3249    3253    3251    3249    3252
    3251    3249    3253    3252    3249    3253    3253    3254    3255
    3253    3254    3256    3253    3254    3257    3253    3263    3260
    3253    3263    3264    3254    3253    3263    3254    3257    3258
    3254    3257    3259    3254    3257    3260    3255    3254    3256
    3255    3254    3257    3256    3254    3257    3257    3260    3261
    3257    3260    3262    3257    3260    3263    3258    3257    3259
    3258    3257    3260    3259    3257    3260    3260    3263    3264
    3261    3260    3262    3261    3260    3263    3262    3260    3263
    3265    3269    3270    3265    3269    3279    3266    3265    3267
    3266    3265    3268    3266    3265    3269    3267    3265    3268
    3267    3265    3269    3268    3265    3269    3269    3270    3271
    3269    3270    3272    3269    3270    3273    3269    3279    3276
    3269    3279    3280    3270    3269    3279    3270    3273    3274
    3270    3273    3275    3270    3273    3276    3271    3270    3272
    3271    3270    3273    3272    3270    3273    3273    3276    3277
    3273    3276    3278    3273    3276    3279    3274    3273    3275
    3274    3273    3276    3275    3273    3276    3276    3279    3280
    3277    3276    3278    3277    3276    3279    3278    3276    3279
    3281    3285    3286    3281    3285    3295    3282    3281    3283
    3282    3281    3284    3282    3281    3285    3283    3281    3284
    3283    3281    3285    3284    3281    3285    3285    3286    3287
    3285    3286    3288    3285    3286    3289    3285    3295    3292
    3285    3295    3296    3286    3285    3295    3286    3289    3290
    3286    3289    3291    3286    3289    3292    3287    3286    3288
    3287    3286    3289    3288    3286    3289    3289    3292    3293
    3289    3292    3294    3289    3292    3295    3290    3289    3291
    3290    3289    3292    3291    3289    3292    3292    3295    3296
    3293    3292    3294    3293    3292    3295    3294    3292    3295
    3297    3301    3302    3297    3301    3311    3298    3297    3299
    3298    3297    3300    3298    3297    3301    3299    3297    3300
    3299    3297    3301    3300    3297    3301    3301    3302    3303
    3301    3302    3304    3301    3302    3305    3301    3311    3308
    3301    3311    3312    3302    3301    3311    3302    3305    3306
    3302    3305    3307    3302    3305    3308    3303    3302    3304
    3303    3302    3305    3304    3302    3305    3305    3308    3309
    3305    3308    3310    3305    3308    3311    3306    3305    3307
    3306    3305    3308    3307    3305    3308    3308    3311    3312
    3309    3308    3310    3309    3308    3311    3310    3308    3311
    3313    3317    3318    3313    3317    3327    3314    3313    3315
    3314    3313    3316    3314    3313    3317    3315    3313    3316
    3315    3313    3317    3316    3313    3317    3317    3318    3319
    3317    3318    3320    3317    3318    3321    3317    3327    3324
    3317    3327    3328    3318    3317    3327    3318    3321    3322
    3318    3321    3323    3318    3321    3324    3319    3318    3320
    3319    3318    3321    3320    3318    3321    3321    3324    3325
    3321    3324    3326    3321    3324    3327    3322    3321    3323
    3322    3321    3324    3323    3321    3324    3324    3327    3328
    3325    3324    3326    3325    3324    3327    3326    3324    3327
    3329    3333    3334    3329    3333    3343    3330    3329    3331
    3330    3329    3332    3330    3329    3333    3331    3329    3332
    3331    3329    3333    3332    3329    3333    3333    3334    3335
    3333    3334    3336    3333    3334    3337    3333    3343    3340
    3333    3343    3344    3334    3333    3343    3334    3337    3338
    3334    3337    3339    3334    3337    3340    3335    3334    3336
    3335    3334    3337    3336    3334    3337    3337    3340    3341
    3337    3340    3342    3337    3340    3343    3338    3337    3339
    3338    3337    3340    3339    3337    3340    3340    3343    3344
    3341    3340    3342    3341    3340    3343    3342    3340    3343
    3345    3349    3350    3345    3349    3359    3346    3345    3347
    3346    3345    3348    3346    3345    3349    3347    3345    3348
    3347    3345    3349    3348    3345    3349    3349    3350    3351
    3349    3350    3352    3349    3350    3353    3349    3359    3356
    3349    3359    3360    3350    3349    3359    3350    3353    3354
    3350    3353    3355    3350    3353    3356    3351    3350    3352
    3351    3350    3353    3352    3350    3353    3353    3356    3357
    3353    3356    3358    3353    3356    3359    3354    3353    3355
    3354    3353    3356    3355    3353    3356    3356    3359    3360
    3357    3356    3358    3357    3356    3359    3358    3356    3359
    3361    3365    3366    3361    3365    3375    3362    3361    3363
    3362    3361    3364    3362    3361    3365    3363    3361    3364
    3363    3361    3365    3364    3361    3365    3365    3366    3367
    3365    3366    3368    3365    3366    3369    3365    3375    3372
    3365    3375    3376    3366    3365    3375    3366    3369    3370
    3366    3369    3371    3366    3369    3372    3367    3366    3368
    3367    3366    3369    3368    3366    3369    3369    3372    3373
    3369    3372    3374    3369    3372    3375    3370    3369    3371
    3370    3369    3372    3371    3369    3372    3372    3375    3376
    3373    3372    3374    3373    3372    3375    3374    3372    3375
    3377    3381    3382    3377    3381    3391    3378    3377    3379
    3378    3377    3380    3378    3377    3381    3379    3377    3380
    3379    3377    3381    3380    3377    3381    3381    3382    3383
    3381    3382    3384    3381    3382    3385    3381    3391    3388
    3381    3391    3392    3382    3381    3391    3382    3385    3386
    3382    3385    3387    3382    3385    3388    3383    3382    3384
    3383    3382    3385    3384    3382    3385    3385    3388    3389
    3385    3388    3390    3385    3388    3391    3386    3385    3387
    3386    3385    3388    3387    3385    3388    3388    3391    3392
    3389    3388    3390    3389    3388    3391    3390    3388    3391
    3393    3397    3398    3393    3397    3407    3394    3393    3395
    3394    3393    3396    3394    3393    3397    3395    3393    3396
    3395    3393    3397    3396    3393    3397    3397    3398    3399
    3397    3398    3400    3397    3398    3401    3397    3407    3404
    3397    3407    3408    3398    3397    3407    3398    3401    3402
    3398    3401    3403    3398    3401    3404    3399    3398    3400
    3399    3398    3401    3400    3398    3401    3401    3404    3405
    3401    3404    3406    3401    3404    3407    3402    3401    3403
    3402    3401    3404    3403    3401    3404    3404    3407    3408
    3405    3404    3406    3405    3404    3407    3406    3404    3407
    3409    3413    3414    3409    3413    3423    3410    3409    3411
    3410    3409    3412    3410    3409    3413    3411    3409    3412
    3411    3409    3413    3412    3409    3413    3413    3414    3415
    3413    3414    3416    3413    3414    3417    3413    3423    3420
    3413    3423    3424    3414    3413    3423    3414    3417    3418
    3414    3417    3419    3414    3417    3420    3415    3414    3416
    3415    3414    3417    3416    3414    3417    3417    3420    3421
    3417    3420    3422    3417    3420    3423    3418    3417    3419
    3418    3417    3420    3419    3417    3420    3420    3423    3424
    3421    3420    3422    3421    3420    3423    3422    3420    3423
    3425    3429    3430    3425    3429    3439    3426    3425    3427
    3426    3425    3428    3426    3425    3429    3427    3425    3428
    3427    3425    3429    3428    3425    3429    3429    3430    3431
    3429    3430    3432    3429    3430    3433    3429    3439    3436
    3429    3439    3440    3430    3429    3439    3430    3433    3434
    3430    3433    3435    3430    3433    3436    3431    3430    3432
    3431    3430    3433    3432    3430    3433    3433    3436    3437
    3433    3436    3438    3433    3436    3439    3434    3433    3435
    3434    3433    3436    3435    3433    3436    3436    3439    3440
    3437    3436    3438    3437    3436    3439    3438    3436    3439
    3441    3445    3446    3441    3445    3455    3442    3441    3443
    3442    3441    3444    3442    3441    3445    3443    3441    3444
    3443    3441    3445    3444    3441    3445    3445    3446    3447
    3445    3446    3448    3445    3446    3449    3445    3455    3452
    3445    3455    3456    3446    3445    3455    3446    3449    3450
    3446    3449    3451    3446    3449    3452    3447    3446    3448
    3447    3446    3449    3448    3446    3449    3449    3452    3453
    3449    3452    3454    3449    3452    3455    3450    3449    3451
    3450    3449    3452    3451    3449    3452    3452    3455    3456
    3453    3452    3454    3453    3452    3455    3454    3452    3455
    3457    3461    3462    3457    3461    3471    3458    3457    3459
    3458    3457    3460    3458    3457    3461    3459    3457    3460
    3459    3457    3461    3460    3457    3461    3461    3462    3463
    3461    3462    3464    3461    3462    3465    3461    3471    3468
    3461    3471    3472    3462    3461    3471    3462    3465    3466
    3462    3465    3467    3462    3465    3468    3463    3462    3464
    3463    3462    3465    3464    3462    3465    3465    3468    3469
    3465    3468    3470    3465    3468    3471    3466    3465    3467
    3466    3465    3468    3467    3465    3468    3468    3471    3472
    3469    3468    3470    3469    3468    3471    3470    3468    3471
    3473    3477    3478    3473    3477    3487    3474    3473    3475
    3474    3473    3476    3474    3473    3477    3475    3473    3476
    3475    3473    3477    3476    3473    3477    3477    3478    3479
    3477    3478    3480    3477    3478    3481    3477    3487    3484
    3477    3487    3488    3478    3477    3487    3478    3481    3482
    3478    3481    3483    3478    3481    3484    3479    3478    3480
    3479    3478    3481    3480    3478    3481    3481    3484    3485
    3481    3484    3486    3481    3484    3487    3482    3481    3483
    3482    3481    3484    3483    3481    3484    3484    3487    3488
    3485    3484    3486    3485    3484    3487    3486    3484    3487
    3489    3493    3494    3489    3493    3503    3490    3489    3491
    3490    3489    3492    3490    3489    3493    3491    3489    3492
    3491    3489    3493    3492    3489    3493    3493    3494    3495
    3493    3494    3496    3493    3494    3497    3493    3503    3500
    3493    3503    3504    3494    3493    3503    3494    3497    3498
    3494    3497    3499    3494    3497    3500    3495    3494    3496
    3495    3494    3497    3496    3494    3497    3497    3500    3501
    3497    3500    3502    3497    3500    3503    3498    3497    3499
    3498    3497    3500    3499    3497    3500    3500    3503    3504
    3501    3500    3502    3501    3500    3503    3502    3500    3503
    3505    3509    3510    3505    3509    3519    3506    3505    3507
    3506    3505    3508    3506    3505    3509    3507    3505    3508
    3507    3505    3509    3508    3505    3509    3509    3510    3511
    3509    3510    3512    3509    3510    3513    3509    3519    3516
    3509    3519    3520    3510    3509    3519    3510    3513    3514
    3510    3513    3515    3510    3513    3516    3511    3510    3512
    3511    3510    3513    3512    3510    3513    3513    3516    3517
    3513    3516    3518    3513    3516    3519    3514    3513    3515
    3514    3513    3516    3515    3513    3516    3516    3519    3520
    3517    3516    3518    3517    3516    3519    3518    3516    3519
    3521    3525    3526    3521    3525    3535    3522    3521    3523
    3522    3521    3524    3522    3521    3525    3523    3521    3524
    3523    3521    3525    3524    3521    3525    3525    3526    3527
    3525    3526    3528    3525    3526    3529    3525    3535    3532
    3525    3535    3536    3526    3525    3535    3526    3529    3530
    3526    3529    3531    3526    3529    3532    3527    3526    3528
    3527    3526    3529    3528    3526    3529    3529    3532    3533
    3529    3532    3534    3529    3532    3535    3530    3529    3531
    3530    3529    3532    3531    3529    3532    3532    3535    3536
    3533    3532    3534    3533    3532    3535    3534    3532    3535
    3537    3541    3542    3537    3541    3551    3538    3537    3539
    3538    3537    3540    3538    3537    3541    3539    3537    3540
    3539    3537    3541    3540    3537    3541    3541    3542    3543
    3541    3542    3544    3541    3542    3545    3541    3551    3548
    3541    3551    3552    3542    3541    3551    3542    3545    3546
    3542    3545    3547    3542    3545    3548    3543    3542    3544
    3543    3542    3545    3544    3542    3545    3545    3548    3549
    3545    3548    3550    3545    3548    3551    3546    3545    3547
    3546    3545    3548    3547    3545    3548    3548    3551    3552
    3549    3548    3550    3549    3548    3551    3550    3548    3551
    3553    3557    3558    3553    3557    3567    3554    3553    3555
    3554    3553    3556    3554    3553    3557    3555    3553    3556
    3555    3553    3557    3556    3553    3557    3557    3558    3559
    3557    3558    3560    3557    3558    3561    3557    3567    3564
    3557    3567    3568    3558    3557    3567    3558    3561    3562
    3558    3561    3563    3558    3561    3564    3559    3558    3560
    3559    3558    3561    3560    3558    3561    3561    3564    3565
    3561    3564    3566    3561    3564    3567    3562    3561    3563
    3562    3561    3564    3563    3561    3564    3564    3567    3568
    3565    3564    3566    3565    3564    3567    3566    3564    3567
    3569    3573    3574    3569    3573    3583    3570    3569    3571
    3570    3569    3572    3570    3569    3573    3571    3569    3572
    3571    3569    3573    3572    3569    3573    3573    3574    3575
    3573    3574    3576    3573    3574    3577    3573    3583    3580
    3573    3583    3584    3574    3573    3583    3574    3577    3578
    3574    3577    3579    3574    3577    3580    3575    3574    3576
    3575    3574    3577    3576    3574    3577    3577    3580    3581
    3577    3580    3582    3577    3580    3583    3578    3577    3579
    3578    3577    3580    3579    3577    3580    3580    3583    3584
    3581    3580    3582    3581    3580    3583    3582    3580    3583
    3585    3589    3590    3585    3589    3599    3586    3585    3587
    3586    3585    3588    3586    3585    3589    3587    3585    3588
    3587    3585    3589    3588    3585    3589    3589    3590    3591
    3589    3590    3592    3589    3590    3593    3589    3599    3596
    3589    3599    3600    3590    3589    3599    3590    3593    3594
    3590    3593    3595    3590    3593    3596    3591    3590    3592
    3591    3590    3593    3592    3590    3593    3593    3596    3597
    3593    3596    3598    3593    3596    3599    3594    3593    3595
    3594    3593    3596    3595    3593    3596    3596    3599    3600
    3597    3596    3598    3597    3596    3599    3598    3596    3599
    3601    3605    3606    3601    3605    3615    3602    3601    3603
    3602    3601    3604    3602    3601    3605    3603    3601    3604
    3603    3601    3605    3604    3601    3605    3605    3606    3607
    3605    3606    3608    3605    3606    3609    3605    3615    3612
    3605    3615    3616    3606    3605    3615    3606    3609    3610
    3606    3609    3611    3606    3609    3612    3607    3606    3608
    3607    3606    3609    3608    3606    3609    3609    3612    3613
    3609    3612    3614    3609    3612    3615    3610    3609    3611
    3610    3609    3612    3611    3609    3612    3612    3615    3616
    3613    3612    3614    3613    3612    3615    3614    3612    3615
    3617    3621    3622    3617    3621    3631    3618    3617    3619
    3618    3617    3620    3618    3617    3621    3619    3617    3620
    3619    3617    3621    3620    3617    3621    3621    3622    3623
    3621    3622    3624    3621    3622    3625    3621    3631    3628
    3621    3631    3632    3622    3621    3631    3622    3625    3626
    3622    3625    3627    3622    3625    3628    3623    3622    3624
    3623    3622    3625    3624    3622    3625    3625    3628    3629
    3625    3628    3630    3625    3628    3631    3626    3625    3627
    3626    3625    3628    3627    3625    3628    3628    3631    3632
    3629    3628    3630    3629    3628    3631    3630    3628    3631
    3633    3637    3638    3633    3637    3647    3634    3633    3635
    3634    3633    3636    3634    3633    3637    3635    3633    3636
    3635    3633    3637    3636    3633    3637    3637    3638    3639
    3637    3638    3640    3637    3638    3641    3637    3647    3644
    3637    3647    3648    3638    3637    3647    3638    3641    3642
    3638    3641    3643    3638    3641    3644    3639    3638    3640
    3639    3638    3641    3640    3638    3641    3641    3644    3645
    3641    3644    3646    3641    3644    3647    3642    3641    3643
    3642    3641    3644    3643    3641    3644    3644    3647    3648
    3645    3644    3646    3645    3644    3647    3646    3644    3647
    3649    3653    3654    3649    3653    3663    3650    3649    3651
    3650    3649    3652    3650    3649    3653    3651    3649    3652
    3651    3649    3653    3652    3649    3653    3653    3654    3655
    3653    3654    3656    3653    3654    3657    3653    3663    3660
    3653    3663    3664    3654    3653    3663    3654    3657    3658
    3654    3657    3659    3654    3657    3660    3655    3654    3656
    3655    3654    3657    3656    3654    3657    3657    3660    3661
    3657    3660    3662    3657    3660    3663    3658    3657    3659
    3658    3657    3660    3659    3657    3660    3660    3663    3664
    3661    3660    3662    3661    3660    3663    3662    3660    3663
    3665    3669    3670    3665    3669    3679    3666    3665    3667
    3666    3665    3668    3666    3665    3669    3667    3665    3668
    3667    3665    3669    3668    3665    3669    3669    3670    3671
    3669    3670    3672    3669    3670    3673    3669    3679    3676
    3669    3679    3680    3670    3669    3679    3670    3673    3674
    3670    3673    3675    3670    3673    3676    3671    3670    3672
    3671    3670    3673    3672    3670    3673    3673    3676    3677
    3673    3676    3678    3673    3676    3679    3674    3673    3675
    3674    3673    3676    3675    3673    3676    3676    3679    3680
    3677    3676    3678    3677    3676    3679    3678    3676    3679
    3681    3685    3686    3681    3685    3695    3682    3681    3683
    3682    3681    3684    3682    3681    3685    3683    3681    3684
    3683    3681    3685    3684    3681    3685    3685    3686    3687
    3685    3686    3688    3685    3686    3689    3685    3695    3692
    3685    3695    3696    3686    3685    3695    3686    3689    3690
    3686    3689    3691    3686    3689    3692    3687    3686    3688
    3687    3686    3689    3688    3686    3689    3689    3692    3693
    3689    3692    3694    3689    3692    3695    3690    3689    3691
    3690    3689    3692    3691    3689    3692    3692    3695    3696
    3693    3692    3694    3693    3692    3695    3694    3692    3695
    3697    3701    3702    3697    3701    3711    3698    3697    3699
    3698    3697    3700    3698    3697    3701    3699    3697    3700
    3699    3697    3701    3700    3697    3701    3701    3702    3703
    3701    3702    3704    3701    3702    3705    3701    3711    3708
    3701    3711    3712    3702    3701    3711    3702    3705    3706
    3702    3705    3707    3702    3705    3708    3703    3702    3704
    3703    3702    3705    3704    3702    3705    3705    3708    3709
    3705    3708    3710    3705    3708    3711    3706    3705    3707
    3706    3705    3708    3707    3705    3708    3708    3711    3712
    3709    3708    3710    3709    3708    3711    3710    3708    3711
    3713    3717    3718    3713    3717    3727    3714    3713    3715
    3714    3713    3716    3714    3713    3717    3715    3713    3716
    3715    3713    3717    3716    3713    3717    3717    3718    3719
    3717    3718    3720    3717    3718    3721    3717    3727    3724
    3717    3727    3728    3718    3717    3727    3718    3721    3722
    3718    3721    3723    3718    3721    3724    3719    3718    3720
    3719    3718    3721    3720    3718    3721    3721    3724    3725
    3721    3724    3726    3721    3724    3727    3722    3721    3723
    3722    3721    3724    3723    3721    3724    3724    3727    3728
    3725    3724    3726    3725    3724    3727    3726    3724    3727
    3729    3733    3734    3729    3733    3743    3730    3729    3731
    3730    3729    3732    3730    3729    3733    3731    3729    3732
    3731    3729    3733    3732    3729    3733    3733    3734    3735
    3733    3734    3736    3733    3734    3737    3733    3743    3740
    3733    3743    3744    3734    3733    3743    3734    3737    3738
    3734    3737    3739    3734    3737    3740    3735    3734    3736
    3735    3734    3737    3736    3734    3737    3737    3740    3741
    3737    3740    3742    3737    3740    3743    3738    3737    3739
    3738    3737    3740    3739    3737    3740    3740    3743    3744
    3741    3740    3742    3741    3740    3743    3742    3740    3743
    3745    3749    3750    3745    3749    3759    3746    3745    3747
    3746    3745    3748    3746    3745    3749    3747    3745    3748
    3747    3745    3749    3748    3745    3749    3749    3750    3751
    3749    3750    3752    3749    3750    3753    3749    3759    3756
    3749    3759    3760    3750    3749    3759    3750    3753    3754
    3750    3753    3755    3750    3753    3756    3751    3750    3752
    3751    3750    3753    3752    3750    3753    3753    3756    3757
    3753    3756    3758    3753    3756    3759    3754    3753    3755
    3754    3753    3756    3755    3753    3756    3756    3759    3760
    3757    3756    3758    3757    3756    3759    3758    3756    3759
    3761    3765    3766    3761    3765    3775    3762    3761    3763
    3762    3761    3764    3762    3761    3765    3763    3761    3764
    3763    3761    3765    3764    3761    3765    3765    3766    3767
    3765    3766    3768    3765    3766    3769    3765    3775    3772
    3765    3775    3776    3766    3765    3775    3766    3769    3770
    3766    3769    3771    3766    3769    3772    3767    3766    3768
    3767    3766    3769    3768    3766    3769    3769    3772    3773
    3769    3772    3774    3769    3772    3775    3770    3769    3771
    3770    3769    3772    3771    3769    3772    3772    3775    3776
    3773    3772    3774    3773    3772    3775    3774    3772    3775
    3777    3781    3782    3777    3781    3791    3778    3777    3779
    3778    3777    3780    3778    3777    3781    3779    3777    3780
    3779    3777    3781    3780    3777    3781    3781    3782    3783
    3781    3782    3784    3781    3782    3785    3781    3791    3788
    3781    3791    3792    3782    3781    3791    3782    3785    3786
    3782    3785    3787    3782    3785    3788    3783    3782    3784
    3783    3782    3785    3784    3782    3785    3785    3788    3789
    3785    3788    3790    3785    3788    3791    3786    3785    3787
    3786    3785    3788    3787    3785    3788    3788    3791    3792
    3789    3788    3790    3789    3788    3791    3790    3788    3791
    3793    3797    3798    3793    3797    3807    3794    3793    3795
    3794    3793    3796    3794    3793    3797    3795    3793    3796
    3795    3793    3797    3796    3793    3797    3797    3798    3799
    3797    3798    3800    3797    3798    3801    3797    3807    3804
    3797    3807    3808    3798    3797    3807    3798    3801    3802
    3798    3801    3803    3798    3801    3804    3799    3798    3800
    3799    3798    3801    3800    3798    3801    3801    3804    3805
    3801    3804    3806    3801    3804    3807    3802    3801    3803
    3802    3801    3804    3803    3801    3804    3804    3807    3808
    3805    3804    3806    3805    3804    3807    3806    3804    3807
    3809    3813    3814    3809    3813    3823    3810    3809    3811
    3810    3809    3812    3810    3809    3813    3811    3809    3812
    3811    3809    3813    3812    3809    3813    3813    3814    3815
    3813    3814    3816    3813    3814    3817    3813    3823    3820
    3813    3823    3824    3814    3813    3823    3814    3817    3818
    3814    3817    3819    3814    3817    3820    3815    3814    3816
    3815    3814    3817    3816    3814    3817    3817    3820    3821
    3817    3820    3822    3817    3820    3823    3818    3817    3819
    3818    3817    3820    3819    3817    3820    3820    3823    3824
    3821    3820    3822    3821    3820    3823    3822    3820    3823
    3825    3829    3830    3825    3829    3839    3826    3825    3827
    3826    3825    3828    3826    3825    3829    3827    3825    3828
    3827    3825    3829    3828    3825    3829    3829    3830    3831
    3829    3830    3832    3829    3830    3833    3829    3839    3836
    3829    3839    3840    3830    3829    3839    3830    3833    3834
    3830    3833    3835    3830    3833    3836    3831    3830    3832
    3831    3830    3833    3832    3830    3833    3833    3836    3837
    3833    3836    3838    3833    3836    3839    3834    3833    3835
    3834    3833    3836    3835    3833    3836    3836    3839    3840
    3837    3836    3838    3837    3836    3839    3838    3836    3839
    3841    3845    3846    3841    3845    3855    3842    3841    3843
    3842    3841    3844    3842    3841    3845    3843    3841    3844
    3843    3841    3845    3844    3841    3845    3845    3846    3847
    3845    3846    3848    3845    3846    3849    3845    3855    3852
    3845    3855    3856    3846    3845    3855    3846    3849    3850
    3846    3849    3851    3846    3849    3852    3847    3846    3848
    3847    3846    3849    3848    3846    3849    3849    3852    3853
    3849    3852    3854    3849    3852    3855    3850    3849    3851
    3850    3849    3852    3851    3849    3852    3852    3855    3856
    3853    3852    3854    3853    3852    3855    3854    3852    3855
    3857    3861    3862    3857    3861    3871    3858    3857    3859
    3858    3857    3860    3858    3857    3861    3859    3857    3860
    3859    3857    3861    3860    3857    3861    3861    3862    3863
    3861    3862    3864    3861    3862    3865    3861    3871    3868
    3861    3871    3872    3862    3861    3871    3862    3865    3866
    3862    3865    3867    3862    3865    3868    3863    3862    3864
    3863    3862    3865    3864    3862    3865    3865    3868    3869
    3865    3868    3870    3865    3868    3871    3866    3865    3867
    3866    3865    3868    3867    3865    3868    3868    3871    3872
    3869    3868    3870    3869    3868    3871    3870    3868    3871
    3873    3877    3878    3873    3877    3887    3874    3873    3875
    3874    3873    3876    3874    3873    3877    3875    3873    3876
    3875    3873    3877    3876    3873    3877    3877    3878    3879
    3877    3878    3880    3877    3878    3881    3877    3887    3884
    3877    3887    3888    3878    3877    3887    3878    3881    3882
    3878    3881    3883    3878    3881    3884    3879    3878    3880
    3879    3878    3881    3880    3878    3881    3881    3884    3885
    3881    3884    3886    3881    3884    3887    3882    3881    3883
    3882    3881    3884    3883    3881    3884    3884    3887    3888
    3885    3884    3886    3885    3884    3887    3886    3884    3887
    3889    3893    3894    3889    3893    3903    3890    3889    3891
    3890    3889    3892    3890    3889    3893    3891    3889    3892
    3891    3889    3893    3892    3889    3893    3893    3894    3895
    3893    3894    3896    3893    3894    3897    3893    3903    3900
    3893    3903    3904    3894    3893    3903    3894    3897    3898
    3894    3897    3899    3894    3897    3900    3895    3894    3896
    3895    3894    3897    3896    3894    3897    3897    3900    3901
    3897    3900    3902    3897    3900    3903    3898    3897    3899
    3898    3897    3900    3899    3897    3900    3900    3903    3904
    3901    3900    3902    3901    3900    3903    3902    3900    3903
    3905    3909    3910    3905    3909    3919    3906    3905    3907
    3906    3905    3908    3906    3905    3909    3907    3905    3908
    3907    3905    3909    3908    3905    3909    3909    3910    3911
    3909    3910    3912    3909    3910    3913    3909    3919    3916
    3909    3919    3920    3910    3909    3919    3910    3913    3914
    3910    3913    3915    3910    3913    3916    3911    3910    3912
    3911    3910    3913    3912    3910    3913    3913    3916    3917
    3913    3916    3918    3913    3916    3919    3914    3913    3915
    3914    3913    3916    3915    3913    3916    3916    3919    3920
    3917    3916    3918    3917    3916    3919    3918    3916    3919
    3921    3925    3926    3921    3925    3935    3922    3921    3923
    3922    3921    3924    3922    3921    3925    3923    3921    3924
    3923    3921    3925    3924    3921    3925    3925    3926    3927
    3925    3926    3928    3925    3926    3929    3925    3935    3932
    3925    3935    3936    3926    3925    3935    3926    3929    3930
    3926    3929    3931    3926    3929    3932    3927    3926    3928
    3927    3926    3929    3928    3926    3929    3929    3932    3933
    3929    3932    3934    3929    3932    3935    3930    3929    3931
    3930    3929    3932    3931    3929    3932    3932    3935    3936
    3933    3932    3934    3933    3932    3935    3934    3932    3935
    3937    3941    3942    3937    3941    3951    3938    3937    3939
    3938    3937    3940    3938    3937    3941    3939    3937    3940
    3939    3937    3941    3940    3937    3941    3941    3942    3943
    3941    3942    3944    3941    3942    3945    3941    3951    3948
    3941    3951    3952    3942    3941    3951    3942    3945    3946
    3942    3945    3947    3942    3945    3948    3943    3942    3944
    3943    3942    3945    3944    3942    3945    3945    3948    3949
    3945    3948    3950    3945    3948    3951    3946    3945    3947
    3946    3945    3948    3947    3945    3948    3948    3951    3952
    3949    3948    3950    3949    3948    3951    3950    3948    3951
    3953    3957    3958    3953    3957    3967    3954    3953    3955
    3954    3953    3956    3954    3953    3957    3955    3953    3956
    3955    3953    3957    3956    3953    3957    3957    3958    3959
    3957    3958    3960    3957    3958    3961    3957    3967    3964
    3957    3967    3968    3958    3957    3967    3958    3961    3962
    3958    3961    3963    3958    3961    3964    3959    3958    3960
    3959    3958    3961    3960    3958    3961    3961    3964    3965
    3961    3964    3966    3961    3964    3967    3962    3961    3963
    3962    3961    3964    3963    3961    3964    3964    3967    3968
    3965    3964    3966    3965    3964    3967    3966    3964    3967
    3969    3973    3974    3969    3973    3983    3970    3969    3971
    3970    3969    3972    3970    3969    3973    3971    3969    3972
    3971    3969    3973    3972    3969    3973    3973    3974    3975
    3973    3974    3976    3973    3974    3977    3973    3983    3980
    3973    3983    3984    3974    3973    3983    3974    3977    3978
    3974    3977    3979    3974    3977    3980    3975    3974    3976
    3975    3974    3977    3976    3974    3977    3977    3980    3981
    3977    3980    3982    3977    3980    3983    3978    3977    3979
    3978    3977    3980    3979    3977    3980    3980    3983    3984
    3981    3980    3982    3981    3980    3983    3982    3980    3983
    3985    3989    3990    3985    3989    3999    3986    3985    3987
    3986    3985    3988    3986    3985    3989    3987    3985    3988
    3987    3985    3989    3988    3985    3989    3989    3990    3991
    3989    3990    3992    3989    3990    3993    3989    3999    3996
    3989    3999    4000    3990    3989    3999    3990    3993    3994
    3990    3993    3995    3990    3993    3996    3991    3990    3992
    3991    3990    3993    3992    3990    3993    3993    3996    3997
    3993    3996    3998    3993    3996    3999    3994    3993    3995
    3994    3993    3996    3995    3993    3996    3996    3999    4000
    3997    3996    3998    3997    3996    3999    3998    3996    3999
    4001    4005    4006    4001    4005    4015    4002    4001    4003
    4002    4001    4004    4002    4001    4005    4003    4001    4004
    4003    4001    4005    4004    4001    4005    4005    4006    4007
    4005    4006    4008    4005    4006    4009    4005    4015    4012
    4005    4015    4016    4006    4005    4015    4006    4009    4010
    4006    4009    4011    4006    4009    4012    4007    4006    4008
    4007    4006    4009    4008    4006    4009    4009    4012    4013
    4009    4012    4014    4009    4012    4015    4010    4009    4011
    4010    4009    4012    4011    4009    4012    4012    4015    4016
    4013    4012    4014    4013    4012    4015    4014    4012    4015
    4017    4021    4022    4017    4021    4031    4018    4017    4019
    4018    4017    4020    4018    4017    4021    4019    4017    4020
    4019    4017    4021    4020    4017    4021    4021    4022    4023
    4021    4022    4024    4021    4022    4025    4021    4031    4028
    4021    4031    4032    4022    4021    4031    4022    4025    4026
    4022    4025    4027    4022    4025    4028    4023    4022    4024
    4023    4022    4025    4024    4022    4025    4025    4028    4029
    4025    4028    4030    4025    4028    4031    4026    4025    4027
    4026    4025    4028    4027    4025    4028    4028    4031    4032
    4029    4028    4030    4029    4028    4031    4030    4028    4031
    4033    4037    4038    4033    4037    4047    4034    4033    4035
    4034    4033    4036    4034    4033    4037    4035    4033    4036
    4035    4033    4037    4036    4033    4037    4037    4038    4039
    4037    4038    4040    4037    4038    4041    4037    4047    4044
    4037    4047    4048    4038    4037    4047    4038    4041    4042
    4038    4041    4043    4038    4041    4044    4039    4038    4040
    4039    4038    4041    4040    4038    4041    4041    4044    4045
    4041    4044    4046    4041    4044    4047    4042    4041    4043
    4042    4041    4044    4043    4041    4044    4044    4047    4048
    4045    4044    4046    4045    4044    4047    4046    4044    4047
    4049    4053    4054    4049    4053    4063    4050    4049    4051
    4050    4049    4052    4050    4049    4053    4051    4049    4052
    4051    4049    4053    4052    4049    4053    4053    4054    4055
    4053    4054    4056    4053    4054    4057    4053    4063    4060
    4053    4063    4064    4054    4053    4063    4054    4057    4058
    4054    4057    4059    4054    4057    4060    4055    4054    4056
    4055    4054    4057    4056    4054    4057    4057    4060    4061
    4057    4060    4062    4057    4060    4063    4058    4057    4059
    4058    4057    4060    4059    4057    4060    4060    4063    4064
    4061    4060    4062    4061    4060    4063    4062    4060    4063
    4065    4069    4070    4065    4069    4079    4066    4065    4067
    4066    4065    4068    4066    4065    4069    4067    4065    4068
    4067    4065    4069    4068    4065    4069    4069    4070    4071
    4069    4070    4072    4069    4070    4073    4069    4079    4076
    4069    4079    4080    4070    4069    4079    4070    4073    4074
    4070    4073    4075    4070    4073    4076    4071    4070    4072
    4071    4070    4073    4072    4070    4073    4073    4076    4077
    4073    4076    4078    4073    4076    4079    4074    4073    4075
    4074    4073    4076    4075    4073    4076    4076    4079    4080
    4077    4076    4078    4077    4076    4079    4078    4076    4079
    4081    4085    4086    4081    4085    4095    4082    4081    4083
    4082    4081    4084    4082    4081    4085    4083    4081    4084
    4083    4081    4085    4084    4081    4085    4085    4086    4087
    4085    4086    4088    4085    4086    4089    4085    4095    4092
    4085    4095    4096    4086    4085    4095    4086    4089    4090
    4086    4089    4091    4086    4089    4092    4087    4086    4088
    4087    4086    4089    4088    4086    4089    4089    4092    4093
    4089    4092    4094    4089    4092    4095    4090    4089    4091
    4090    4089    4092    4091    4089    4092    4092    4095    4096
    4093    4092    4094    4093    4092    4095    4094    4092    4095
    4097    4101    4102    4097    4101    4111    4098    4097    4099
    4098    4097    4100    4098    4097    4101    4099    4097    4100
    4099    4097    4101    4100    4097    4101    4101    4102    4103
    4101    4102    4104    4101    4102    4105    4101    4111    4108
    4101    4111    4112    4102    4101    4111    4102    4105    4106
    4102    4105    4107    4102    4105    4108    4103    4102    4104
    4103    4102    4105    4104    4102    4105    4105    4108    4109
    4105    4108    4110    4105    4108    4111    4106    4105    4107
    4106    4105    4108    4107    4105    4108    4108    4111    4112
    4109    4108    4110    4109    4108    4111    4110    4108    4111
    4113    4117    4118    4113    4117    4127    4114    4113    4115
    4114    4113    4116    4114    4113    4117    4115    4113    4116
    4115    4113    4117    4116    4113    4117    4117    4118    4119
    4117    4118    4120    4117    4118    4121    4117    4127    4124
    4117    4127    4128    4118    4117    4127    4118    4121    4122
    4118    4121    4123    4118    4121    4124    4119    4118    4120
    4119    4118    4121    4120    4118    4121    4121    4124    4125
    4121    4124    4126    4121    4124    4127    4122    4121    4123
    4122    4121    4124    4123    4121    4124    4124    4127    4128
    4125    4124    4126    4125    4124    4127    4126    4124    4127
    4129    4133    4134    4129    4133    4143    4130    4129    4131
    4130    4129    4132    4130    4129    4133    4131    4129    4132
    4131    4129    4133    4132    4129    4133    4133    4134    4135
    4133    4134    4136    4133    4134    4137    4133    4143    4140
    4133    4143    4144    4134    4133    4143    4134    4137    4138
    4134    4137    4139    4134    4137    4140    4135    4134    4136
    4135    4134    4137    4136    4134    4137    4137    4140    4141
    4137    4140    4142    4137    4140    4143    4138    4137    4139
    4138    4137    4140    4139    4137    4140    4140    4143    4144
    4141    4140    4142    4141    4140    4143    4142    4140    4143
    4145    4149    4150    4145    4149    4159    4146    4145    4147
    4146    4145    4148    4146    4145    4149    4147    4145    4148
    4147    4145    4149    4148    4145    4149    4149    4150    4151
    4149    4150    4152    4149    4150    4153    4149    4159    4156
    4149    4159    4160    4150    4149    4159    4150    4153    4154
    4150    4153    4155    4150    4153    4156    4151    4150    4152
    4151    4150    4153    4152    4150    4153    4153    4156    4157
    4153    4156    4158    4153    4156    4159    4154    4153    4155
    4154    4153    4156    4155    4153    4156    4156    4159    4160
    4157    4156    4158    4157    4156    4159    4158    4156    4159
    4161    4165    4166    4161    4165    4175    4162    4161    4163
    4162    4161    4164    4162    4161    4165    4163    4161    4164
    4163    4161    4165    4164    4161    4165    4165    4166    4167
    4165    4166    4168    4165    4166    4169    4165    4175    4172
    4165    4175    4176    4166    4165    4175    4166    4169    4170
    4166    4169    4171    4166    4169    4172    4167    4166    4168
    4167    4166    4169    4168    4166    4169    4169    4172    4173
    4169    4172    4174    4169    4172    4175    4170    4169    4171
    4170    4169    4172    4171    4169    4172    4172    4175    4176
    4173    4172    4174    4173    4172    4175    4174    4172    4175
    4177    4181    4182    4177    4181    4191    4178    4177    4179
    4178    4177    4180    4178    4177    4181    4179    4177    4180
    4179    4177    4181    4180    4177    4181    4181    4182    4183
    4181    4182    4184    4181    4182    4185    4181    4191    4188
    4181    4191    4192    4182    4181    4191    4182    4185    4186
    4182    4185    4187    4182    4185    4188    4183    4182    4184
    4183    4182    4185    4184    4182    4185    4185    4188    4189
    4185    4188    4190    4185    4188    4191    4186    4185    4187
    4186    4185    4188    4187    4185    4188    4188    4191    4192
    4189    4188    4190    4189    4188    4191    4190    4188    4191
    4193    4197    4198    4193    4197    4207    4194    4193    4195
    4194    4193    4196    4194    4193    4197    4195    4193    4196
    4195    4193    4197    4196    4193    4197    4197    4198    4199
    4197    4198    4200    4197    4198    4201    4197    4207    4204
    4197    4207    4208    4198    4197    4207    4198    4201    4202
    4198    4201    4203    4198    4201    4204    4199    4198    4200
    4199    4198    4201    4200    4198    4201    4201    4204    4205
    4201    4204    4206    4201    4204    4207    4202    4201    4203
    4202    4201    4204    4203    4201    4204    4204    4207    4208
    4205    4204    4206    4205    4204    4207    4206    4204    4207
    4209    4213    4214    4209    4213    4223    4210    4209    4211
    4210    4209    4212    4210    4209    4213    4211    4209    4212
    4211    4209    4213    4212    4209    4213    4213    4214    4215
    4213    4214    4216    4213    4214    4217    4213    4223    4220
    4213    4223    4224    4214    4213    4223    4214    4217    4218
    4214    4217    4219    4214    4217    4220    4215    4214    4216
    4215    4214    4217    4216    4214    4217    4217    4220    4221
    4217    4220    4222    4217    4220    4223    4218    4217    4219
    4218    4217    4220    4219    4217    4220    4220    4223    4224
    4221    4220    4222    4221    4220    4223    4222    4220    4223
    4225    4229    4230    4225    4229    4239    4226    4225    4227
    4226    4225    4228    4226    4225    4229    4227    4225    4228
    4227    4225    4229    4228    4225    4229    4229    4230    4231
    4229    4230    4232    4229    4230    4233    4229    4239    4236
    4229    4239    4240    4230    4229    4239    4230    4233    4234
    4230    4233    4235    4230    4233    4236    4231    4230    4232
    4231    4230    4233    4232    4230    4233    4233    4236    4237
    4233    4236    4238    4233    4236    4239    4234    4233    4235
    4234    4233    4236    4235    4233    4236    4236    4239    4240
    4237    4236    4238    4237    4236    4239    4238    4236    4239
    4241    4245    4246    4241    4245    4255    4242    4241    4243
    4242    4241    4244    4242    4241    4245    4243    4241    4244
    4243    4241    4245    4244    4241    4245    4245    4246    4247
    4245    4246    4248    4245    4246    4249    4245    4255    4252
    4245    4255    4256    4246    4245    4255    4246    4249    4250
    4246    4249    4251    4246    4249    4252    4247    4246    4248
    4247    4246    4249    4248    4246    4249    4249    4252    4253
    4249    4252    4254    4249    4252    4255    4250    4249    4251
    4250    4249    4252    4251    4249    4252    4252    4255    4256
    4253    4252    4254    4253    4252    4255    4254    4252    4255
    4257    4261    4262    4257    4261    4271    4258    4257    4259
    4258    4257    4260    4258    4257    4261    4259    4257    4260
    4259    4257    4261    4260    4257    4261    4261    4262    4263
    4261    4262    4264    4261    4262    4265    4261    4271    4268
    4261    4271    4272    4262    4261    4271    4262    4265    4266
    4262    4265    4267    4262    4265    4268    4263    4262    4264
    4263    4262    4265    4264    4262    4265    4265    4268    4269
    4265    4268    4270    4265    4268    4271    4266    4265    4267
    4266    4265    4268    4267    4265    4268    4268    4271    4272
    4269    4268    4270    4269    4268    4271    4270    4268    4271
    4273    4277    4278    4273    4277    4287    4274    4273    4275
    4274    4273    4276    4274    4273    4277    4275    4273    4276
    4275    4273    4277    4276    4273    4277    4277    4278    4279
    4277    4278    4280    4277    4278    4281    4277    4287    4284
    4277    4287    4288    4278    4277    4287    4278    4281    4282
    4278    4281    4283    4278    4281    4284    4279    4278    4280
    4279    4278    4281    4280    4278    4281    4281    4284    4285
    4281    4284    4286    4281    4284    4287    4282    4281    4283
    4282    4281    4284    4283    4281    4284    4284    4287    4288
    4285    4284    4286    4285    4284    4287    4286    4284    4287
    4289    4293    4294    4289    4293    4303    4290    4289    4291
    4290    4289    4292    4290    4289    4293    4291    4289    4292
    4291    4289    4293    4292    4289    4293    4293    4294    4295
    4293    4294    4296    4293    4294    4297    4293    4303    4300
    4293    4303    4304    4294    4293    4303    4294    4297    4298
    4294    4297    4299    4294    4297    4300    4295    4294    4296
    4295    4294    4297    4296    4294    4297    4297    4300    4301
    4297    4300    4302    4297    4300    4303    4298    4297    4299
    4298    4297    4300    4299    4297    4300    4300    4303    4304
    4301    4300    4302    4301    4300    4303    4302    4300    4303
    4305    4309    4310    4305    4309    4319    4306    4305    4307
    4306    4305    4308    4306    4305    4309    4307    4305    4308
    4307    4305    4309    4308    4305    4309    4309    4310    4311
    4309    4310    4312    4309    4310    4313    4309    4319    4316
    4309    4319    4320    4310    4309    4319    4310    4313    4314
    4310    4313    4315    4310    4313    4316    4311    4310    4312
    4311    4310    4313    4312    4310    4313    4313    4316    4317
    4313    4316    4318    4313    4316    4319    4314    4313    4315
    4314    4313    4316    4315    4313    4316    4316    4319    4320
    4317    4316    4318    4317    4316    4319    4318    4316    4319
    4321    4325    4326    4321    4325    4335    4322    4321    4323
    4322    4321    4324    4322    4321    4325    4323    4321    4324
    4323    4321    4325    4324    4321    4325    4325    4326    4327
    4325    4326    4328    4325    4326    4329    4325    4335    4332
    4325    4335    4336    4326    4325    4335    4326    4329    4330
    4326    4329    4331    4326    4329    4332    4327    4326    4328
    4327    4326    4329    4328    4326    4329    4329    4332    4333
    4329    4332    4334    4329    4332    4335    4330    4329    4331
    4330    4329    4332    4331    4329    4332    4332    4335    4336
    4333    4332    4334    4333    4332    4335    4334    4332    4335
    4337    4341    4342    4337    4341    4351    4338    4337    4339
    4338    4337    4340    4338    4337    4341    4339    4337    4340
    4339    4337    4341    4340    4337    4341    4341    4342    4343
    4341    4342    4344    4341    4342    4345    4341    4351    4348
    4341    4351    4352    4342    4341    4351    4342    4345    4346
    4342    4345    4347    4342    4345    4348    4343    4342    4344
    4343    4342    4345    4344    4342    4345    4345    4348    4349
    4345    4348    4350    4345    4348    4351    4346    4345    4347
    4346    4345    4348    4347    4345    4348    4348    4351    4352
    4349    4348    4350    4349    4348    4351    4350    4348    4351
    4353    4357    4358    4353    4357    4367    4354    4353    4355
    4354    4353    4356    4354    4353    4357    4355    4353    4356
    4355    4353    4357    4356    4353    4357    4357    4358    4359
    4357    4358    4360    4357    4358    4361    4357    4367    4364
    4357    4367    4368    4358    4357    4367    4358    4361    4362
    4358    4361    4363    4358    4361    4364    4359    4358    4360
    4359    4358    4361    4360    4358    4361    4361    4364    4365
    4361    4364    4366    4361    4364    4367    4362    4361    4363
    4362    4361    4364    4363    4361    4364    4364    4367    4368
    4365    4364    4366    4365    4364    4367    4366    4364    4367
    4369    4373    4374    4369    4373    4383    4370    4369    4371
    4370    4369    4372    4370    4369    4373    4371    4369    4372
    4371    4369    4373    4372    4369    4373    4373    4374    4375
    4373    4374    4376    4373    4374    4377    4373    4383    4380
    4373    4383    4384    4374    4373    4383    4374    4377    4378
    4374    4377    4379    4374    4377    4380    4375    4374    4376
    4375    4374    4377    4376    4374    4377    4377    4380    4381
    4377    4380    4382    4377    4380    4383    4378    4377    4379
    4378    4377    4380    4379    4377    4380    4380    4383    4384
    4381    4380    4382    4381    4380    4383    4382    4380    4383
    4385    4389    4390    4385    4389    4399    4386    4385    4387
    4386    4385    4388    4386    4385    4389    4387    4385    4388
    4387    4385    4389    4388    4385    4389    4389    4390    4391
    4389    4390    4392    4389    4390    4393    4389    4399    4396
    4389    4399    4400    4390    4389    4399    4390    4393    4394
    4390    4393    4395    4390    4393    4396    4391    4390    4392
    4391    4390    4393    4392    4390    4393    4393    4396    4397
    4393    4396    4398    4393    4396    4399    4394    4393    4395
    4394    4393    4396    4395    4393    4396    4396    4399    4400
    4397    4396    4398    4397    4396    4399    4398    4396    4399
    4401    4405    4406    4401    4405    4415    4402    4401    4403
    4402    4401    4404    4402    4401    4405    4403    4401    4404
    4403    4401    4405    4404    4401    4405    4405    4406    4407
    4405    4406    4408    4405    4406    4409    4405    4415    4412
    4405    4415    4416    4406    4405    4415    4406    4409    4410
    4406    4409    4411    4406    4409    4412    4407    4406    4408
    4407    4406    4409    4408    4406    4409    4409    4412    4413
    4409    4412    4414    4409    4412    4415    4410    4409    4411
    4410    4409    4412    4411    4409    4412    4412    4415    4416
    4413    4412    4414    4413    4412    4415    4414    4412    4415
    4417    4421    4422    4417    4421    4431    4418    4417    4419
    4418    4417    4420    4418    4417    4421    4419    4417    4420
    4419    4417    4421    4420    4417    4421    4421    4422    4423
    4421    4422    4424    4421    4422    4425    4421    4431    4428
    4421    4431    4432    4422    4421    4431    4422    4425    4426
    4422    4425    4427    4422    4425    4428    4423    4422    4424
    4423    4422    4425    4424    4422    4425    4425    4428    4429
    4425    4428    4430    4425    4428    4431    4426    4425    4427
    4426    4425    4428    4427    4425    4428    4428    4431    4432
    4429    4428    4430    4429    4428    4431    4430    4428    4431
    4433    4437    4438    4433    4437    4447    4434    4433    4435
    4434    4433    4436    4434    4433    4437    4435    4433    4436
    4435    4433    4437    4436    4433    4437    4437    4438    4439
    4437    4438    4440    4437    4438    4441    4437    4447    4444
    4437    4447    4448    4438    4437    4447    4438    4441    4442
    4438    4441    4443    4438    4441    4444    4439    4438    4440
    4439    4438    4441    4440    4438    4441    4441    4444    4445
    4441    4444    4446    4441    4444    4447    4442    4441    4443
    4442    4441    4444    4443    4441    4444    4444    4447    4448
    4445    4444    4446    4445    4444    4447    4446    4444    4447
    4449    4453    4454    4449    4453    4463    4450    4449    4451
    4450    4449    4452    4450    4449    4453    4451    4449    4452
    4451    4449    4453    4452    4449    4453    4453    4454    4455
    4453    4454    4456    4453    4454    4457    4453    4463    4460
    4453    4463    4464    4454    4453    4463    4454    4457    4458
    4454    4457    4459    4454    4457    4460    4455    4454    4456
    4455    4454    4457    4456    4454    4457    4457    4460    4461
    4457    4460    4462    4457    4460    4463    4458    4457    4459
    4458    4457    4460    4459    4457    4460    4460    4463    4464
    4461    4460    4462    4461    4460    4463    4462    4460    4463
    4465    4469    4470    4465    4469    4479    4466    4465    4467
    4466    4465    4468    4466    4465    4469    4467    4465    4468
    4467    4465    4469    4468    4465    4469    4469    4470    4471
    4469    4470    4472    4469    4470    4473    4469    4479    4476
    4469    4479    4480    4470    4469    4479    4470    4473    4474
    4470    4473    4475    4470    4473    4476    4471    4470    4472
    4471    4470    4473    4472    4470    4473    4473    4476    4477
    4473    4476    4478    4473    4476    4479    4474    4473    4475
    4474    4473    4476    4475    4473    4476    4476    4479    4480
    4477    4476    4478    4477    4476    4479    4478    4476    4479
    4481    4485    4486    4481    4485    4495    4482    4481    4483
    4482    4481    4484    4482    4481    4485    4483    4481    4484
    4483    4481    4485    4484    4481    4485    4485    4486    4487
    4485    4486    4488    4485    4486    4489    4485    4495    4492
    4485    4495    4496    4486    4485    4495    4486    4489    4490
    4486    4489    4491    4486    4489    4492    4487    4486    4488
    4487    4486    4489    4488    4486    4489    4489    4492    4493
    4489    4492    4494    4489    4492    4495    4490    4489    4491
    4490    4489    4492    4491    4489    4492    4492    4495    4496
    4493    4492    4494    4493    4492    4495    4494    4492    4495
    4497    4501    4502    4497    4501    4511    4498    4497    4499
    4498    4497    4500    4498    4497    4501    4499    4497    4500
    4499    4497    4501    4500    4497    4501    4501    4502    4503
    4501    4502    4504    4501    4502    4505    4501    4511    4508
    4501    4511    4512    4502    4501    4511    4502    4505    4506
    4502    4505    4507    4502    4505    4508    4503    4502    4504
    4503    4502    4505    4504    4502    4505    4505    4508    4509
    4505    4508    4510    4505    4508    4511    4506    4505    4507
    4506    4505    4508    4507    4505    4508    4508    4511    4512
    4509    4508    4510    4509    4508    4511    4510    4508    4511
    4513    4517    4518    4513    4517    4527    4514    4513    4515
    4514    4513    4516    4514    4513    4517    4515    4513    4516
    4515    4513    4517    4516    4513    4517    4517    4518    4519
    4517    4518    4520    4517    4518    4521    4517    4527    4524
    4517    4527    4528    4518    4517    4527    4518    4521    4522
    4518    4521    4523    4518    4521    4524    4519    4518    4520
    4519    4518    4521    4520    4518    4521    4521    4524    4525
    4521    4524    4526    4521    4524    4527    4522    4521    4523
    4522    4521    4524    4523    4521    4524    4524    4527    4528
    4525    4524    4526    4525    4524    4527    4526    4524    4527
    4529    4533    4534    4529    4533    4543    4530    4529    4531
    4530    4529    4532    4530    4529    4533    4531    4529    4532
    4531    4529    4533    4532    4529    4533    4533    4534    4535
    4533    4534    4536    4533    4534    4537    4533    4543    4540
    4533    4543    4544    4534    4533    4543    4534    4537    4538
    4534    4537    4539    4534    4537    4540    4535    4534    4536
    4535    4534    4537    4536    4534    4537    4537    4540    4541
    4537    4540    4542    4537    4540    4543    4538    4537    4539
    4538    4537    4540    4539    4537    4540    4540    4543    4544
    4541    4540    4542    4541    4540    4543    4542    4540    4543
    4545    4549    4550    4545    4549    4559    4546    4545    4547
    4546    4545    4548    4546    4545    4549    4547    4545    4548
    4547    4545    4549    4548    4545    4549    4549    4550    4551
    4549    4550    4552    4549    4550    4553    4549    4559    4556
    4549    4559    4560    4550    4549    4559    4550    4553    4554
    4550    4553    4555    4550    4553    4556    4551    4550    4552
    4551    4550    4553    4552    4550    4553    4553    4556    4557
    4553    4556    4558    4553    4556    4559    4554    4553    4555
    4554    4553    4556    4555    4553    4556    4556    4559    4560
    4557    4556    4558    4557    4556    4559    4558    4556    4559
    4561    4565    4566    4561    4565    4575    4562    4561    4563
    4562    4561    4564    4562    4561    4565    4563    4561    4564
    4563    4561    4565    4564    4561    4565    4565    4566    4567
    4565    4566    4568    4565    4566    4569    4565    4575    4572
    4565    4575    4576    4566    4565    4575    4566    4569    4570
    4566    4569    4571    4566    4569    4572    4567    4566    4568
    4567    4566    4569    4568    4566    4569    4569    4572    4573
    4569    4572    4574    4569    4572    4575    4570    4569    4571
    4570    4569    4572    4571    4569    4572    4572    4575    4576
    4573    4572    4574    4573    4572    4575    4574    4572    4575
    4577    4581    4582    4577    4581    4591    4578    4577    4579
    4578    4577    4580    4578    4577    4581    4579    4577    4580
    4579    4577    4581    4580    4577    4581    4581    4582    4583
    4581    4582    4584    4581    4582    4585    4581    4591    4588
    4581    4591    4592    4582    4581    4591    4582    4585    4586
    4582    4585    4587    4582    4585    4588    4583    4582    4584
    4583    4582    4585    4584    4582    4585    4585    4588    4589
    4585    4588    4590    4585    4588    4591    4586    4585    4587
    4586    4585    4588    4587    4585    4588    4588    4591    4592
    4589    4588    4590    4589    4588    4591    4590    4588    4591
    4593    4597    4598    4593    4597    4607    4594    4593    4595
    4594    4593    4596    4594    4593    4597    4595    4593    4596
    4595    4593    4597    4596    4593    4597    4597    4598    4599
    4597    4598    4600    4597    4598    4601    4597    4607    4604
    4597    4607    4608    4598    4597    4607    4598    4601    4602
    4598    4601    4603    4598    4601    4604    4599    4598    4600
    4599    4598    4601    4600    4598    4601    4601    4604    4605
    4601    4604    4606    4601    4604    4607    4602    4601    4603
    4602    4601    4604    4603    4601    4604    4604    4607    4608
    4605    4604    4606    4605    4604    4607    4606    4604    4607
    4609    4613    4614    4609    4613    4623    4610    4609    4611
    4610    4609    4612    4610    4609    4613    4611    4609    4612
    4611    4609    4613    4612    4609    4613    4613    4614    4615
    4613    4614    4616    4613    4614    4617    4613    4623    4620
    4613    4623    4624    4614    4613    4623    4614    4617    4618
    4614    4617    4619    4614    4617    4620    4615    4614    4616
    4615    4614    4617    4616    4614    4617    4617    4620    4621
    4617    4620    4622    4617    4620    4623    4618    4617    4619
    4618    4617    4620    4619    4617    4620    4620    4623    4624
    4621    4620    4622    4621    4620    4623    4622    4620    4623
    4625    4629    4630    4625    4629    4639    4626    4625    4627
    4626    4625    4628    4626    4625    4629    4627    4625    4628
    4627    4625    4629    4628    4625    4629    4629    4630    4631
    4629    4630    4632    4629    4630    4633    4629    4639    4636
    4629    4639    4640    4630    4629    4639    4630    4633    4634
    4630    4633    4635    4630    4633    4636    4631    4630    4632
    4631    4630    4633    4632    4630    4633    4633    4636    4637
    4633    4636    4638    4633    4636    4639    4634    4633    4635
    4634    4633    4636    4635    4633    4636    4636    4639    4640
    4637    4636    4638    4637    4636    4639    4638    4636    4639
    4641    4645    4646    4641    4645    4655    4642    4641    4643
    4642    4641    4644    4642    4641    4645    4643    4641    4644
    4643    4641    4645    4644    4641    4645    4645    4646    4647
    4645    4646    4648    4645    4646    4649    4645    4655    4652
    4645    4655    4656    4646    4645    4655    4646    4649    4650
    4646    4649    4651    4646    4649    4652    4647    4646    4648
    4647    4646    4649    4648    4646    4649    4649    4652    4653
    4649    4652    4654    4649    4652    4655    4650    4649    4651
    4650    4649    4652    4651    4649    4652    4652    4655    4656
    4653    4652    4654    4653    4652    4655    4654    4652    4655
    4657    4661    4662    4657    4661    4671    4658    4657    4659
    4658    4657    4660    4658    4657    4661    4659    4657    4660
    4659    4657    4661    4660    4657    4661    4661    4662    4663
    4661    4662    4664    4661    4662    4665    4661    4671    4668
    4661    4671    4672    4662    4661    4671    4662    4665    4666
    4662    4665    4667    4662    4665    4668    4663    4662    4664
    4663    4662    4665    4664    4662    4665    4665    4668    4669
    4665    4668    4670    4665    4668    4671    4666    4665    4667
    4666    4665    4668    4667    4665    4668    4668    4671    4672
    4669    4668    4670    4669    4668    4671    4670    4668    4671
    4673    4677    4678    4673    4677    4687    4674    4673    4675
    4674    4673    4676    4674    4673    4677    4675    4673    4676
    4675    4673    4677    4676    4673    4677    4677    4678    4679
    4677    4678    4680    4677    4678    4681    4677    4687    4684
    4677    4687    4688    4678    4677    4687    4678    4681    4682
    4678    4681    4683    4678    4681    4684    4679    4678    4680
    4679    4678    4681    4680    4678    4681    4681    4684    4685
    4681    4684    4686    4681    4684    4687    4682    4681    4683
    4682    4681    4684    4683    4681    4684    4684    4687    4688
    4685    4684    4686    4685    4684    4687    4686    4684    4687
    4689    4693    4694    4689    4693    4703    4690    4689    4691
    4690    4689    4692    4690    4689    4693    4691    4689    4692
    4691    4689    4693    4692    4689    4693    4693    4694    4695
    4693    4694    4696    4693    4694    4697    4693    4703    4700
    4693    4703    4704    4694    4693    4703    4694    4697    4698
    4694    4697    4699    4694    4697    4700    4695    4694    4696
    4695    4694    4697    4696    4694    4697    4697    4700    4701
    4697    4700    4702    4697    4700    4703    4698    4697    4699
    4698    4697    4700    4699    4697    4700    4700    4703    4704
    4701    4700    4702    4701    4700    4703    4702    4700    4703
    4705    4709    4710    4705    4709    4719    4706    4705    4707
    4706    4705    4708    4706    4705    4709    4707    4705    4708
    4707    4705    4709    4708    4705    4709    4709    4710    4711
    4709    4710    4712    4709    4710    4713    4709    4719    4716
    4709    4719    4720    4710    4709    4719    4710    4713    4714
    4710    4713    4715    4710    4713    4716    4711    4710    4712
    4711    4710    4713    4712    4710    4713    4713    4716    4717
    4713    4716    4718    4713    4716    4719    4714    4713    4715
    4714    4713    4716    4715    4713    4716    4716    4719    4720
    4717    4716    4718    4717    4716    4719    4718    4716    4719
    4721    4725    4726    4721    4725    4735    4722    4721    4723
    4722    4721    4724    4722    4721    4725    4723    4721    4724
    4723    4721    4725    4724    4721    4725    4725    4726    4727
    4725    4726    4728    4725    4726    4729    4725    4735    4732
    4725    4735    4736    4726    4725    4735    4726    4729    4730
    4726    4729    4731    4726    4729    4732    4727    4726    4728
    4727    4726    4729    4728    4726    4729    4729    4732    4733
    4729    4732    4734    4729    4732    4735    4730    4729    4731
    4730    4729    4732    4731    4729    4732    4732    4735    4736
    4733    4732    4734    4733    4732    4735    4734    4732    4735
    4737    4741    4742    4737    4741    4751    4738    4737    4739
    4738    4737    4740    4738    4737    4741    4739    4737    4740
    4739    4737    4741    4740    4737    4741    4741    4742    4743
    4741    4742    4744    4741    4742    4745    4741    4751    4748
    4741    4751    4752    4742    4741    4751    4742    4745    4746
    4742    4745    4747    4742    4745    4748    4743    4742    4744
    4743    4742    4745    4744    4742    4745    4745    4748    4749
    4745    4748    4750    4745    4748    4751    4746    4745    4747
    4746    4745    4748    4747    4745    4748    4748    4751    4752
    4749    4748    4750    4749    4748    4751    4750    4748    4751
    4753    4757    4758    4753    4757    4767    4754    4753    4755
    4754    4753    4756    4754    4753    4757    4755    4753    4756
    4755    4753    4757    4756    4753    4757    4757    4758    4759
    4757    4758    4760    4757    4758    4761    4757    4767    4764
    4757    4767    4768    4758    4757    4767    4758    4761    4762
    4758    4761    4763    4758    4761    4764    4759    4758    4760
    4759    4758    4761    4760    4758    4761    4761    4764    4765
    4761    4764    4766    4761    4764    4767    4762    4761    4763
    4762    4761    4764    4763    4761    4764    4764    4767    4768
    4765    4764    4766    4765    4764    4767    4766    4764    4767
    4769    4773    4774    4769    4773    4783    4770    4769    4771
    4770    4769    4772    4770    4769    4773    4771    4769    4772
    4771    4769    4773    4772    4769    4773    4773    4774    4775
    4773    4774    4776    4773    4774    4777    4773    4783    4780
    4773    4783    4784    4774    4773    4783    4774    4777    4778
    4774    4777    4779    4774    4777    4780    4775    4774    4776
    4775    4774    4777    4776    4774    4777    4777    4780    4781
    4777    4780    4782    4777    4780    4783    4778    4777    4779
    4778    4777    4780    4779    4777    4780    4780    4783    4784
    4781    4780    4782    4781    4780    4783    4782    4780    4783
    4785    4789    4790    4785    4789    4799    4786    4785    4787
    4786    4785    4788    4786    4785    4789    4787    4785    4788
    4787    4785    4789    4788    4785    4789    4789    4790    4791
    4789    4790    4792    4789    4790    4793    4789    4799    4796
    4789    4799    4800    4790    4789    4799    4790    4793    4794
    4790    4793    4795    4790    4793    4796    4791    4790    4792
    4791    4790    4793    4792    4790    4793    4793    4796    4797
    4793    4796    4798    4793    4796    4799    4794    4793    4795
    4794    4793    4796    4795    4793    4796    4796    4799    4800
    4797    4796    4798    4797    4796    4799    4798    4796    4799
    4801    4805    4806    4801    4805    4815    4802    4801    4803
    4802    4801    4804    4802    4801    4805    4803    4801    4804
    4803    4801    4805    4804    4801    4805    4805    4806    4807
    4805    4806    4808    4805    4806    4809    4805    4815    4812
    4805    4815    4816    4806    4805    4815    4806    4809    4810
    4806    4809    4811    4806    4809    4812    4807    4806    4808
    4807    4806    4809    4808    4806    4809    4809    4812    4813
    4809    4812    4814    4809    4812    4815    4810    4809    4811
    4810    4809    4812    4811    4809    4812    4812    4815    4816
    4813    4812    4814    4813    4812    4815    4814    4812    4815
    4817    4821    4822    4817    4821    4831    4818    4817    4819
    4818    4817    4820    4818    4817    4821    4819    4817    4820
    4819    4817    4821    4820    4817    4821    4821    4822    4823
    4821    4822    4824    4821    4822    4825    4821    4831    4828
    4821    4831    4832    4822    4821    4831    4822    4825    4826
    4822    4825    4827    4822    4825    4828    4823    4822    4824
    4823    4822    4825    4824    4822    4825    4825    4828    4829
    4825    4828    4830    4825    4828    4831    4826    4825    4827
    4826    4825    4828    4827    4825    4828    4828    4831    4832
    4829    4828    4830    4829    4828    4831    4830    4828    4831
    4833    4837    4838    4833    4837    4847    4834    4833    4835
    4834    4833    4836    4834    4833    4837    4835    4833    4836
    4835    4833    4837    4836    4833    4837    4837    4838    4839
    4837    4838    4840    4837    4838    4841    4837    4847    4844
    4837    4847    4848    4838    4837    4847    4838    4841    4842
    4838    4841    4843    4838    4841    4844    4839    4838    4840
    4839    4838    4841    4840    4838    4841    4841    4844    4845
    4841    4844    4846    4841    4844    4847    4842    4841    4843
    4842    4841    4844    4843    4841    4844    4844    4847    4848
    4845    4844    4846    4845    4844    4847    4846    4844    4847
    4849    4853    4854    4849    4853    4863    4850    4849    4851
    4850    4849    4852    4850    4849    4853    4851    4849    4852
    4851    4849    4853    4852    4849    4853    4853    4854    4855
    4853    4854    4856    4853    4854    4857    4853    4863    4860
    4853    4863    4864    4854    4853    4863    4854    4857    4858
    4854    4857    4859    4854    4857    4860    4855    4854    4856
    4855    4854    4857    4856    4854    4857    4857    4860    4861
    4857    4860    4862    4857    4860    4863    4858    4857    4859
    4858    4857    4860    4859    4857    4860    4860    4863    4864
    4861    4860    4862    4861    4860    4863    4862    4860    4863
    4865    4869    4870    4865    4869    4879    4866    4865    4867
    4866    4865    4868    4866    4865    4869    4867    4865    4868
    4867    4865    4869    4868    4865    4869    4869    4870    4871
    4869    4870    4872    4869    4870    4873    4869    4879    4876
    4869    4879    4880    4870    4869    4879    4870    4873    4874
    4870    4873    4875    4870    4873    4876    4871    4870    4872
    4871    4870    4873    4872    4870    4873    4873    4876    4877
    4873    4876    4878    4873    4876    4879    4874    4873    4875
    4874    4873    4876    4875    4873    4876    4876    4879    4880
    4877    4876    4878    4877    4876    4879    4878    4876    4879
    4881    4885    4886    4881    4885    4895    4882    4881    4883
    4882    4881    4884    4882    4881    4885    4883    4881    4884
    4883    4881    4885    4884    4881    4885    4885    4886    4887
    4885    4886    4888    4885    4886    4889    4885    4895    4892
    4885    4895    4896    4886    4885    4895    4886    4889    4890
    4886    4889    4891    4886    4889    4892    4887    4886    4888
    4887    4886    4889    4888    4886    4889    4889    4892    4893
    4889    4892    4894    4889    4892    4895    4890    4889    4891
    4890    4889    4892    4891    4889    4892    4892    4895    4896
    4893    4892    4894    4893    4892    4895    4894    4892    4895
    4897    4901    4902    4897    4901    4911    4898    4897    4899
    4898    4897    4900    4898    4897    4901    4899    4897    4900
    4899    4897    4901    4900    4897    4901    4901    4902    4903
    4901    4902    4904    4901    4902    4905    4901    4911    4908
    4901    4911    4912    4902    4901    4911    4902    4905    4906
    4902    4905    4907    4902    4905    4908    4903    4902    4904
    4903    4902    4905    4904    4902    4905    4905    4908    4909
    4905    4908    4910    4905    4908    4911    4906    4905    4907
    4906    4905    4908    4907    4905    4908    4908    4911    4912
    4909    4908    4910    4909    4908    4911    4910    4908    4911
    4913    4917    4918    4913    4917    4927    4914    4913    4915
    4914    4913    4916    4914    4913    4917    4915    4913    4916
    4915    4913    4917    4916    4913    4917    4917    4918    4919
    4917    4918    4920    4917    4918    4921    4917    4927    4924
    4917    4927    4928    4918    4917    4927    4918    4921    4922
    4918    4921    4923    4918    4921    4924    4919    4918    4920
    4919    4918    4921    4920    4918    4921    4921    4924    4925
    4921    4924    4926    4921    4924    4927    4922    4921    4923
    4922    4921    4924    4923    4921    4924    4924    4927    4928
    4925    4924    4926    4925    4924    4927    4926    4924    4927
    4929    4933    4934    4929    4933    4943    4930    4929    4931
    4930    4929    4932    4930    4929    4933    4931    4929    4932
    4931    4929    4933    4932    4929    4933    4933    4934    4935
    4933    4934    4936    4933    4934    4937    4933    4943    4940
    4933    4943    4944    4934    4933    4943    4934    4937    4938
    4934    4937    4939    4934    4937    4940    4935    4934    4936
    4935    4934    4937    4936    4934    4937    4937    4940    4941
    4937    4940    4942    4937    4940    4943    4938    4937    4939
    4938    4937    4940    4939    4937    4940    4940    4943    4944
    4941    4940    4942    4941    4940    4943    4942    4940    4943
    4945    4949    4950    4945    4949    4959    4946    4945    4947
    4946    4945    4948    4946    4945    4949    4947    4945    4948
    4947    4945    4949    4948    4945    4949    4949    4950    4951
    4949    4950    4952    4949    4950    4953    4949    4959    4956
    4949    4959    4960    4950    4949    4959    4950    4953    4954
    4950    4953    4955    4950    4953    4956    4951    4950    4952
    4951    4950    4953    4952    4950    4953    4953    4956    4957
    4953    4956    4958    4953    4956    4959    4954    4953    4955
    4954    4953    4956    4955    4953    4956    4956    4959    4960
    4957    4956    4958    4957    4956    4959    4958    4956    4959
    4961    4965    4966    4961    4965    4975    4962    4961    4963
    4962    4961    4964    4962    4961    4965    4963    4961    4964
    4963    4961    4965    4964    4961    4965    4965    4966    4967
    4965    4966    4968    4965    4966    4969    4965    4975    4972
    4965    4975    4976    4966    4965    4975    4966    4969    4970
    4966    4969    4971    4966    4969    4972    4967    4966    4968
    4967    4966    4969    4968    4966    4969    4969    4972    4973
    4969    4972    4974    4969    4972    4975    4970    4969    4971
    4970    4969    4972    4971    4969    4972    4972    4975    4976
    4973    4972    4974    4973    4972    4975    4974    4972    4975
    4977    4981    4982    4977    4981    4991    4978    4977    4979
    4978    4977    4980    4978    4977    4981    4979    4977    4980
    4979    4977    4981    4980    4977    4981    4981    4982    4983
    4981    4982    4984    4981    4982    4985    4981    4991    4988
    4981    4991    4992    4982    4981    4991    4982    4985    4986
    4982    4985    4987    4982    4985    4988    4983    4982    4984
    4983    4982    4985    4984    4982    4985    4985    4988    4989
    4985    4988    4990    4985    4988    4991    4986    4985    4987
    4986    4985    4988    4987    4985    4988    4988    4991    4992
    4989    4988    4990    4989    4988    4991    4990    4988    4991
    4993    4997    4998    4993    4997    5007    4994    4993    4995
    4994    4993    4996    4994    4993    4997    4995    4993    4996
    4995    4993    4997    4996    4993    4997    4997    4998    4999
    4997    4998    5000    4997    4998    5001    4997    5007    5004
    4997    5007    5008    4998    4997    5007    4998    5001    5002
    4998    5001    5003    4998    5001    5004    4999    4998    5000
    4999    4998    5001    5000    4998    5001    5001    5004    5005
    5001    5004    5006    5001    5004    5007    5002    5001    5003
    5002    5001    5004    5003    5001    5004    5004    5007    5008
    5005    5004    5006    5005    5004    5007    5006    5004    5007
    5009    5013    5014    5009    5013    5023    5010    5009    5011
    5010    5009    5012    5010    5009    5013    5011    5009    5012
    5011    5009    5013    5012    5009    5013    5013    5014    5015
    5013    5014    5016    5013    5014    5017    5013    5023    5020
    5013    5023    5024    5014    5013    5023    5014    5017    5018
    5014    5017    5019    5014    5017    5020    5015    5014    5016
    5015    5014    5017    5016    5014    5017    5017    5020    5021
    5017    5020    5022    5017    5020    5023    5018    5017    5019
    5018    5017    5020    5019    5017    5020    5020    5023    5024
    5021    5020    5022    5021    5020    5023    5022    5020    5023
    5025    5029    5030    5025    5029    5039    5026    5025    5027
    5026    5025    5028    5026    5025    5029    5027    5025    5028
    5027    5025    5029    5028    5025    5029    5029    5030    5031
    5029    5030    5032    5029    5030    5033    5029    5039    5036
    5029    5039    5040    5030    5029    5039    5030    5033    5034
    5030    5033    5035    5030    5033    5036    5031    5030    5032
    5031    5030    5033    5032    5030    5033    5033    5036    5037
    5033    5036    5038    5033    5036    5039    5034    5033    5035
    5034    5033    5036    5035    5033    5036    5036    5039    5040
    5037    5036    5038    5037    5036    5039    5038    5036    5039
    5041    5045    5046    5041    5045    5055    5042    5041    5043
    5042    5041    5044    5042    5041    5045    5043    5041    5044
    5043    5041    5045    5044    5041    5045    5045    5046    5047
    5045    5046    5048    5045    5046    5049    5045    5055    5052
    5045    5055    5056    5046    5045    5055    5046    5049    5050
    5046    5049    5051    5046    5049    5052    5047    5046    5048
    5047    5046    5049    5048    5046    5049    5049    5052    5053
    5049    5052    5054    5049    5052    5055    5050    5049    5051
    5050    5049    5052    5051    5049    5052    5052    5055    5056
    5053    5052    5054    5053    5052    5055    5054    5052    5055
    5057    5061    5062    5057    5061    5071    5058    5057    5059
    5058    5057    5060    5058    5057    5061    5059    5057    5060
    5059    5057    5061    5060    5057    5061    5061    5062    5063
    5061    5062    5064    5061    5062    5065    5061    5071    5068
    5061    5071    5072    5062    5061    5071    5062    5065    5066
    5062    5065    5067    5062    5065    5068    5063    5062    5064
    5063    5062    5065    5064    5062    5065    5065    5068    5069
    5065    5068    5070    5065    5068    5071    5066    5065    5067
    5066    5065    5068    5067    5065    5068    5068    5071    5072
    5069    5068    5070    5069    5068    5071    5070    5068    5071
    5073    5077    5078    5073    5077    5087    5074    5073    5075
    5074    5073    5076    5074    5073    5077    5075    5073    5076
    5075    5073    5077    5076    5073    5077    5077    5078    5079
    5077    5078    5080    5077    5078    5081    5077    5087    5084
    5077    5087    5088    5078    5077    5087    5078    5081    5082
    5078    5081    5083    5078    5081    5084    5079    5078    5080
    5079    5078    5081    5080    5078    5081    5081    5084    5085
    5081    5084    5086    5081    5084    5087    5082    5081    5083
    5082    5081    5084    5083    5081    5084    5084    5087    5088
    5085    5084    5086    5085    5084    5087    5086    5084    5087
    5089    5093    5094    5089    5093    5103    5090    5089    5091
    5090    5089    5092    5090    5089    5093    5091    5089    5092
    5091    5089    5093    5092    5089    5093    5093    5094    5095
    5093    5094    5096    5093    5094    5097    5093    5103    5100
    5093    5103    5104    5094    5093    5103    5094    5097    5098
    5094    5097    5099    5094    5097    5100    5095    5094    5096
    5095    5094    5097    5096    5094    5097    5097    5100    5101
    5097    5100    5102    5097    5100    5103    5098    5097    5099
    5098    5097    5100    5099    5097    5100    5100    5103    5104
    5101    5100    5102    5101    5100    5103    5102    5100    5103
    5105    5109    5110    5105    5109    5119    5106    5105    5107
    5106    5105    5108    5106    5105    5109    5107    5105    5108
    5107    5105    5109    5108    5105    5109    5109    5110    5111
    5109    5110    5112    5109    5110    5113    5109    5119    5116
    5109    5119    5120    5110    5109    5119    5110    5113    5114
    5110    5113    5115    5110    5113    5116    5111    5110    5112
    5111    5110    5113    5112    5110    5113    5113    5116    5117
    5113    5116    5118    5113    5116    5119    5114    5113    5115
    5114    5113    5116    5115    5113    5116    5116    5119    5120
    5117    5116    5118    5117    5116    5119    5118    5116    5119
    5121    5125    5126    5121    5125    5135    5122    5121    5123
    5122    5121    5124    5122    5121    5125    5123    5121    5124
    5123    5121    5125    5124    5121    5125    5125    5126    5127
    5125    5126    5128    5125    5126    5129    5125    5135    5132
    5125    5135    5136    5126    5125    5135    5126    5129    5130
    5126    5129    5131    5126    5129    5132    5127    5126    5128
    5127    5126    5129    5128    5126    5129    5129    5132    5133
    5129    5132    5134    5129    5132    5135    5130    5129    5131
    5130    5129    5132    5131    5129    5132    5132    5135    5136
    5133    5132    5134    5133    5132    5135    5134    5132    5135
    5137    5141    5142    5137    5141    5151    5138    5137    5139
    5138    5137    5140    5138    5137    5141    5139    5137    5140
    5139    5137    5141    5140    5137    5141    5141    5142    5143
    5141    5142    5144    5141    5142    5145    5141    5151    5148
    5141    5151    5152    5142    5141    5151    5142    5145    5146
    5142    5145    5147    5142    5145    5148    5143    5142    5144
    5143    5142    5145    5144    5142    5145    5145    5148    5149
    5145    5148    5150    5145    5148    5151    5146    5145    5147
    5146    5145    5148    5147    5145    5148    5148    5151    5152
    5149    5148    5150    5149    5148    5151    5150    5148    5151
    5153    5157    5158    5153    5157    5167    5154    5153    5155
    5154    5153    5156    5154    5153    5157    5155    5153    5156
    5155    5153    5157    5156    5153    5157    5157    5158    5159
    5157    5158    5160    5157    5158    5161    5157    5167    5164
    5157    5167    5168    5158    5157    5167    5158    5161    5162
    5158    5161    5163    5158    5161    5164    5159    5158    5160
    5159    5158    5161    5160    5158    5161    5161    5164    5165
    5161    5164    5166    5161    5164    5167    5162    5161    5163
    5162    5161    5164    5163    5161    5164    5164    5167    5168
    5165    5164    5166    5165    5164    5167    5166    5164    5167
    5169    5173    5174    5169    5173    5183    5170    5169    5171
    5170    5169    5172    5170    5169    5173    5171    5169    5172
    5171    5169    5173    5172    5169    5173    5173    5174    5175
    5173    5174    5176    5173    5174    5177    5173    5183    5180
    5173    5183    5184    5174    5173    5183    5174    5177    5178
    5174    5177    5179    5174    5177    5180    5175    5174    5176
    5175    5174    5177    5176    5174    5177    5177    5180    5181
    5177    5180    5182    5177    5180    5183    5178    5177    5179
    5178    5177    5180    5179    5177    5180    5180    5183    5184
    5181    5180    5182    5181    5180    5183    5182    5180    5183
    5185    5189    5190    5185    5189    5199    5186    5185    5187
    5186    5185    5188    5186    5185    5189    5187    5185    5188
    5187    5185    5189    5188    5185    5189    5189    5190    5191
    5189    5190    5192    5189    5190    5193    5189    5199    5196
    5189    5199    5200    5190    5189    5199    5190    5193    5194
    5190    5193    5195    5190    5193    5196    5191    5190    5192
    5191    5190    5193    5192    5190    5193    5193    5196    5197
    5193    5196    5198    5193    5196    5199    5194    5193    5195
    5194    5193    5196    5195    5193    5196    5196    5199    5200
    5197    5196    5198    5197    5196    5199    5198    5196    5199
    5201    5205    5206    5201    5205    5215    5202    5201    5203
    5202    5201    5204    5202    5201    5205    5203    5201    5204
    5203    5201    5205    5204    5201    5205    5205    5206    5207
    5205    5206    5208    5205    5206    5209    5205    5215    5212
    5205    5215    5216    5206    5205    5215    5206    5209    5210
    5206    5209    5211    5206    5209    5212    5207    5206    5208
    5207    5206    5209    5208    5206    5209    5209    5212    5213
    5209    5212    5214    5209    5212    5215    5210    5209    5211
    5210    5209    5212    5211    5209    5212    5212    5215    5216
    5213    5212    5214    5213    5212    5215    5214    5212    5215
    5217    5221    5222    5217    5221    5231    5218    5217    5219
    5218    5217    5220    5218    5217    5221    5219    5217    5220
    5219    5217    5221    5220    5217    5221    5221    5222    5223
    5221    5222    5224    5221    5222    5225    5221    5231    5228
    5221    5231    5232    5222    5221    5231    5222    5225    5226
    5222    5225    5227    5222    5225    5228    5223    5222    5224
    5223    5222    5225    5224    5222    5225    5225    5228    5229
    5225    5228    5230    5225    5228    5231    5226    5225    5227
    5226    5225    5228    5227    5225    5228    5228    5231    5232
    5229    5228    5230    5229    5228    5231    5230    5228    5231
    5233    5237    5238    5233    5237    5247    5234    5233    5235
    5234    5233    5236    5234    5233    5237    5235    5233    5236
    5235    5233    5237    5236    5233    5237    5237    5238    5239
    5237    5238    5240    5237    5238    5241    5237    5247    5244
    5237    5247    5248    5238    5237    5247    5238    5241    5242
    5238    5241    5243    5238    5241    5244    5239    5238    5240
    5239    5238    5241    5240    5238    5241    5241    5244    5245
    5241    5244    5246    5241    5244    5247    5242    5241    5243
    5242    5241    5244    5243    5241    5244    5244    5247    5248
    5245    5244    5246    5245    5244    5247    5246    5244    5247
    5249    5253    5254    5249    5253    5263    5250    5249    5251
    5250    5249    5252    5250    5249    5253    5251    5249    5252
    5251    5249    5253    5252    5249    5253    5253    5254    5255
    5253    5254    5256    5253    5254    5257    5253    5263    5260
    5253    5263    5264    5254    5253    5263    5254    5257    5258
    5254    5257    5259    5254    5257    5260    5255    5254    5256
    5255    5254    5257    5256    5254    5257    5257    5260    5261
    5257    5260    5262    5257    5260    5263    5258    5257    5259
    5258    5257    5260    5259    5257    5260    5260    5263    5264
    5261    5260    5262    5261    5260    5263    5262    5260    5263
    5265    5269    5270    5265    5269    5279    5266    5265    5267
    5266    5265    5268    5266    5265    5269    5267    5265    5268
    5267    5265    5269    5268    5265    5269    5269    5270    5271
    5269    5270    5272    5269    5270    5273    5269    5279    5276
    5269    5279    5280    5270    5269    5279    5270    5273    5274
    5270    5273    5275    5270    5273    5276    5271    5270    5272
    5271    5270    5273    5272    5270    5273    5273    5276    5277
    5273    5276    5278    5273    5276    5279    5274    5273    5275
    5274    5273    5276    5275    5273    5276    5276    5279    5280
    5277    5276    5278    5277    5276    5279    5278    5276    5279
    5281    5285    5286    5281    5285    5295    5282    5281    5283
    5282    5281    5284    5282    5281    5285    5283    5281    5284
    5283    5281    5285    5284    5281    5285    5285    5286    5287
    5285    5286    5288    5285    5286    5289    5285    5295    5292
    5285    5295    5296    5286    5285    5295    5286    5289    5290
    5286    5289    5291    5286    5289    5292    5287    5286    5288
    5287    5286    5289    5288    5286    5289    5289    5292    5293
    5289    5292    5294    5289    5292    5295    5290    5289    5291
    5290    5289    5292    5291    5289    5292    5292    5295    5296
    5293    5292    5294    5293    5292    5295    5294    5292    5295
    5297    5301    5302    5297    5301    5311    5298    5297    5299
    5298    5297    5300    5298    5297    5301    5299    5297    5300
    5299    5297    5301    5300    5297    5301    5301    5302    5303
    5301    5302    5304    5301    5302    5305    5301    5311    5308
    5301    5311    5312    5302    5301    5311    5302    5305    5306
    5302    5305    5307    5302    5305    5308    5303    5302    5304
    5303    5302    5305    5304    5302    5305    5305    5308    5309
    5305    5308    5310    5305    5308    5311    5306    5305    5307
    5306    5305    5308    5307    5305    5308    5308    5311    5312
    5309    5308    5310    5309    5308    5311    5310    5308    5311
    5313    5317    5318    5313    5317    5327    5314    5313    5315
    5314    5313    5316    5314    5313    5317    5315    5313    5316
    5315    5313    5317    5316    5313    5317    5317    5318    5319
    5317    5318    5320    5317    5318    5321    5317    5327    5324
    5317    5327    5328    5318    5317    5327    5318    5321    5322
    5318    5321    5323    5318    5321    5324    5319    5318    5320
    5319    5318    5321    5320    5318    5321    5321    5324    5325
    5321    5324    5326    5321    5324    5327    5322    5321    5323
    5322    5321    5324    5323    5321    5324    5324    5327    5328
    5325    5324    5326    5325    5324    5327    5326    5324    5327
    5329    5333    5334    5329    5333    5343    5330    5329    5331
    5330    5329    5332    5330    5329    5333    5331    5329    5332
    5331    5329    5333    5332    5329    5333    5333    5334    5335
    5333    5334    5336    5333    5334    5337    5333    5343    5340
    5333    5343    5344    5334    5333    5343    5334    5337    5338
    5334    5337    5339    5334    5337    5340    5335    5334    5336
    5335    5334    5337    5336    5334    5337    5337    5340    5341
    5337    5340    5342    5337    5340    5343    5338    5337    5339
    5338    5337    5340    5339    5337    5340    5340    5343    5344
    5341    5340    5342    5341    5340    5343    5342    5340    5343
    5345    5349    5350    5345    5349    5359    5346    5345    5347
    5346    5345    5348    5346    5345    5349    5347    5345    5348
    5347    5345    5349    5348    5345    5349    5349    5350    5351
    5349    5350    5352    5349    5350    5353    5349    5359    5356
    5349    5359    5360    5350    5349    5359    5350    5353    5354
    5350    5353    5355    5350    5353    5356    5351    5350    5352
    5351    5350    5353    5352    5350    5353    5353    5356    5357
    5353    5356    5358    5353    5356    5359    5354    5353    5355
    5354    5353    5356    5355    5353    5356    5356    5359    5360
    5357    5356    5358    5357    5356    5359    5358    5356    5359
    5361    5365    5366    5361    5365    5375    5362    5361    5363
    5362    5361    5364    5362    5361    5365    5363    5361    5364
    5363    5361    5365    5364    5361    5365    5365    5366    5367
    5365    5366    5368    5365    5366    5369    5365    5375    5372
    5365    5375    5376    5366    5365    5375    5366    5369    5370
    5366    5369    5371    5366    5369    5372    5367    5366    5368
    5367    5366    5369    5368    5366    5369    5369    5372    5373
    5369    5372    5374    5369    5372    5375    5370    5369    5371
    5370    5369    5372    5371    5369    5372    5372    5375    5376
    5373    5372    5374    5373    5372    5375    5374    5372    5375
    5377    5381    5382    5377    5381    5391    5378    5377    5379
    5378    5377    5380    5378    5377    5381    5379    5377    5380
    5379    5377    5381    5380    5377    5381    5381    5382    5383
    5381    5382    5384    5381    5382    5385    5381    5391    5388
    5381    5391    5392    5382    5381    5391    5382    5385    5386
    5382    5385    5387    5382    5385    5388    5383    5382    5384
    5383    5382    5385    5384    5382    5385    5385    5388    5389
    5385    5388    5390    5385    5388    5391    5386    5385    5387
    5386    5385    5388    5387    5385    5388    5388    5391    5392
    5389    5388    5390    5389    5388    5391    5390    5388    5391
    5393    5397    5398    5393    5397    5407    5394    5393    5395
    5394    5393    5396    5394    5393    5397    5395    5393    5396
    5395    5393    5397    5396    5393    5397    5397    5398    5399
    5397    5398    5400    5397    5398    5401    5397    5407    5404
    5397    5407    5408    5398    5397    5407    5398    5401    5402
    5398    5401    5403    5398    5401    5404    5399    5398    5400
    5399    5398    5401    5400    5398    5401    5401    5404    5405
    5401    5404    5406    5401    5404    5407    5402    5401    5403
    5402    5401    5404    5403    5401    5404    5404    5407    5408
    5405    5404    5406    5405    5404    5407    5406    5404    5407
    5409    5413    5414    5409    5413    5423    5410    5409    5411
    5410    5409    5412    5410    5409    5413    5411    5409    5412
    5411    5409    5413    5412    5409    5413    5413    5414    5415
    5413    5414    5416    5413    5414    5417    5413    5423    5420
    5413    5423    5424    5414    5413    5423    5414    5417    5418
    5414    5417    5419    5414    5417    5420    5415    5414    5416
    5415    5414    5417    5416    5414    5417    5417    5420    5421
    5417    5420    5422    5417    5420    5423    5418    5417    5419
    5418    5417    5420    5419    5417    5420    5420    5423    5424
    5421    5420    5422    5421    5420    5423    5422    5420    5423
    5425    5429    5430    5425    5429    5439    5426    5425    5427
    5426    5425    5428    5426    5425    5429    5427    5425    5428
    5427    5425    5429    5428    5425    5429    5429    5430    5431
    5429    5430    5432    5429    5430    5433    5429    5439    5436
    5429    5439    5440    5430    5429    5439    5430    5433    5434
    5430    5433    5435    5430    5433    5436    5431    5430    5432
    5431    5430    5433    5432    5430    5433    5433    5436    5437
    5433    5436    5438    5433    5436    5439    5434    5433    5435
    5434    5433    5436    5435    5433    5436    5436    5439    5440
    5437    5436    5438    5437    5436    5439    5438    5436    5439
    5441    5445    5446    5441    5445    5455    5442    5441    5443
    5442    5441    5444    5442    5441    5445    5443    5441    5444
    5443    5441    5445    5444    5441    5445    5445    5446    5447
    5445    5446    5448    5445    5446    5449    5445    5455    5452
    5445    5455    5456    5446    5445    5455    5446    5449    5450
    5446    5449    5451    5446    5449    5452    5447    5446    5448
    5447    5446    5449    5448    5446    5449    5449    5452    5453
    5449    5452    5454    5449    5452    5455    5450    5449    5451
    5450    5449    5452    5451    5449    5452    5452    5455    5456
    5453    5452    5454    5453    5452    5455    5454    5452    5455
    5457    5461    5462    5457    5461    5471    5458    5457    5459
    5458    5457    5460    5458    5457    5461    5459    5457    5460
    5459    5457    5461    5460    5457    5461    5461    5462    5463
    5461    5462    5464    5461    5462    5465    5461    5471    5468
    5461    5471    5472    5462    5461    5471    5462    5465    5466
    5462    5465    5467    5462    5465    5468    5463    5462    5464
    5463    5462    5465    5464    5462    5465    5465    5468    5469
    5465    5468    5470    5465    5468    5471    5466    5465    5467
    5466    5465    5468    5467    5465    5468    5468    5471    5472
    5469    5468    5470    5469    5468    5471    5470    5468    5471
    5473    5477    5478    5473    5477    5487    5474    5473    5475
    5474    5473    5476    5474    5473    5477    5475    5473    5476
    5475    5473    5477    5476    5473    5477    5477    5478    5479
    5477    5478    5480    5477    5478    5481    5477    5487    5484
    5477    5487    5488    5478    5477    5487    5478    5481    5482
    5478    5481    5483    5478    5481    5484    5479    5478    5480
    5479    5478    5481    5480    5478    5481    5481    5484    5485
    5481    5484    5486    5481    5484    5487    5482    5481    5483
    5482    5481    5484    5483    5481    5484    5484    5487    5488
    5485    5484    5486    5485    5484    5487    5486    5484    5487
    5489    5493    5494    5489    5493    5503    5490    5489    5491
    5490    5489    5492    5490    5489    5493    5491    5489    5492
    5491    5489    5493    5492    5489    5493    5493    5494    5495
    5493    5494    5496    5493    5494    5497    5493    5503    5500
    5493    5503    5504    5494    5493    5503    5494    5497    5498
    5494    5497    5499    5494    5497    5500    5495    5494    5496
    5495    5494    5497    5496    5494    5497    5497    5500    5501
    5497    5500    5502    5497    5500    5503    5498    5497    5499
    5498    5497    5500    5499    5497    5500    5500    5503    5504
    5501    5500    5502    5501    5500    5503    5502    5500    5503
    5505    5509    5510    5505    5509    5519    5506    5505    5507
    5506    5505    5508    5506    5505    5509    5507    5505    5508
    5507    5505    5509    5508    5505    5509    5509    5510    5511
    5509    5510    5512    5509    5510    5513    5509    5519    5516
    5509    5519    5520    5510    5509    5519    5510    5513    5514
    5510    5513    5515    5510    5513    5516    5511    5510    5512
    5511    5510    5513    5512    5510    5513    5513    5516    5517
    5513    5516    5518    5513    5516    5519    5514    5513    5515
    5514    5513    5516    5515    5513    5516    5516    5519    5520
    5517    5516    5518    5517    5516    5519    5518    5516    5519
    5521    5525    5526    5521    5525    5535    5522    5521    5523
    5522    5521    5524    5522    5521    5525    5523    5521    5524
    5523    5521    5525    5524    5521    5525    5525    5526    5527
    5525    5526    5528    5525    5526    5529    5525    5535    5532
    5525    5535    5536    5526    5525    5535    5526    5529    5530
    5526    5529    5531    5526    5529    5532    5527    5526    5528
    5527    5526    5529    5528    5526    5529    5529    5532    5533
    5529    5532    5534    5529    5532    5535    5530    5529    5531
    5530    5529    5532    5531    5529    5532    5532    5535    5536
    5533    5532    5534    5533    5532    5535    5534    5532    5535
    5537    5541    5542    5537    5541    5551    5538    5537    5539
    5538    5537    5540    5538    5537    5541    5539    5537    5540
    5539    5537    5541    5540    5537    5541    5541    5542    5543
    5541    5542    5544    5541    5542    5545    5541    5551    5548
    5541    5551    5552    5542    5541    5551    5542    5545    5546
    5542    5545    5547    5542    5545    5548    5543    5542    5544
    5543    5542    5545    5544    5542    5545    5545    5548    5549
    5545    5548    5550    5545    5548    5551    5546    5545    5547
    5546    5545    5548    5547    5545    5548    5548    5551    5552
    5549    5548    5550    5549    5548    5551    5550    5548    5551
    5553    5557    5558    5553    5557    5567    5554    5553    5555
    5554    5553    5556    5554    5553    5557    5555    5553    5556
    5555    5553    5557    5556    5553    5557    5557    5558    5559
    5557    5558    5560    5557    5558    5561    5557    5567    5564
    5557    5567    5568    5558    5557    5567    5558    5561    5562
    5558    5561    5563    5558    5561    5564    5559    5558    5560
    5559    5558    5561    5560    5558    5561    5561    5564    5565
    5561    5564    5566    5561    5564    5567    5562    5561    5563
    5562    5561    5564    5563    5561    5564    5564    5567    5568
    5565    5564    5566    5565    5564    5567    5566    5564    5567
    5569    5573    5574    5569    5573    5583    5570    5569    5571
    5570    5569    5572    5570    5569    5573    5571    5569    5572
    5571    5569    5573    5572    5569    5573    5573    5574    5575
    5573    5574    5576    5573    5574    5577    5573    5583    5580
    5573    5583    5584    5574    5573    5583    5574    5577    5578
    5574    5577    5579    5574    5577    5580    5575    5574    5576
    5575    5574    5577    5576    5574    5577    5577    5580    5581
    5577    5580    5582    5577    5580    5583    5578    5577    5579
    5578    5577    5580    5579    5577    5580    5580    5583    5584
    5581    5580    5582    5581    5580    5583    5582    5580    5583
    5585    5589    5590    5585    5589    5599    5586    5585    5587
    5586    5585    5588    5586    5585    5589    5587    5585    5588
    5587    5585    5589    5588    5585    5589    5589    5590    5591
    5589    5590    5592    5589    5590    5593    5589    5599    5596
    5589    5599    5600    5590    5589    5599    5590    5593    5594
    5590    5593    5595    5590    5593    5596    5591    5590    5592
    5591    5590    5593    5592    5590    5593    5593    5596    5597
    5593    5596    5598    5593    5596    5599    5594    5593    5595
    5594    5593    5596    5595    5593    5596    5596    5599    5600
    5597    5596    5598    5597    5596    5599    5598    5596    5599
    5601    5605    5606    5601    5605    5615    5602    5601    5603
    5602    5601    5604    5602    5601    5605    5603    5601    5604
    5603    5601    5605    5604    5601    5605    5605    5606    5607
    5605    5606    5608    5605    5606    5609    5605    5615    5612
    5605    5615    5616    5606    5605    5615    5606    5609    5610
    5606    5609    5611    5606    5609    5612    5607    5606    5608
    5607    5606    5609    5608    5606    5609    5609    5612    5613
    5609    5612    5614    5609    5612    5615    5610    5609    5611
    5610    5609    5612    5611    5609    5612    5612    5615    5616
    5613    5612    5614    5613    5612    5615    5614    5612    5615
    5617    5621    5622    5617    5621    5631    5618    5617    5619
    5618    5617    5620    5618    5617    5621    5619    5617    5620
    5619    5617    5621    5620    5617    5621    5621    5622    5623
    5621    5622    5624    5621    5622    5625    5621    5631    5628
    5621    5631    5632    5622    5621    5631    5622    5625    5626
    5622    5625    5627    5622    5625    5628    5623    5622    5624
    5623    5622    5625    5624    5622    5625    5625    5628    5629
    5625    5628    5630    5625    5628    5631    5626    5625    5627
    5626    5625    5628    5627    5625    5628    5628    5631    5632
    5629    5628    5630    5629    5628    5631    5630    5628    5631
    5633    5637    5638    5633    5637    5647    5634    5633    5635
    5634    5633    5636    5634    5633    5637    5635    5633    5636
    5635    5633    5637    5636    5633    5637    5637    5638    5639
    5637    5638    5640    5637    5638    5641    5637    5647    5644
    5637    5647    5648    5638    5637    5647    5638    5641    5642
    5638    5641    5643    5638    5641    5644    5639    5638    5640
    5639    5638    5641    5640    5638    5641    5641    5644    5645
    5641    5644    5646    5641    5644    5647    5642    5641    5643
    5642    5641    5644    5643    5641    5644    5644    5647    5648
    5645    5644    5646    5645    5644    5647    5646    5644    5647
    5649    5653    5654    5649    5653    5663    5650    5649    5651
    5650    5649    5652    5650    5649    5653    5651    5649    5652
    5651    5649    5653    5652    5649    5653    5653    5654    5655
    5653    5654    5656    5653    5654    5657    5653    5663    5660
    5653    5663    5664    5654    5653    5663    5654    5657    5658
    5654    5657    5659    5654    5657    5660    5655    5654    5656
    5655    5654    5657    5656    5654    5657    5657    5660    5661
    5657    5660    5662    5657    5660    5663    5658    5657    5659
    5658    5657    5660    5659    5657    5660    5660    5663    5664
    5661    5660    5662    5661    5660    5663    5662    5660    5663
    5665    5669    5670    5665    5669    5679    5666    5665    5667
    5666    5665    5668    5666    5665    5669    5667    5665    5668
    5667    5665    5669    5668    5665    5669    5669    5670    5671
    5669    5670    5672    5669    5670    5673    5669    5679    5676
    5669    5679    5680    5670    5669    5679    5670    5673    5674
    5670    5673    5675    5670    5673    5676    5671    5670    5672
    5671    5670    5673    5672    5670    5673    5673    5676    5677
    5673    5676    5678    5673    5676    5679    5674    5673    5675
    5674    5673    5676    5675    5673    5676    5676    5679    5680
    5677    5676    5678    5677    5676    5679    5678    5676    5679
    5681    5685    5686    5681    5685    5695    5682    5681    5683
    5682    5681    5684    5682    5681    5685    5683    5681    5684
    5683    5681    5685    5684    5681    5685    5685    5686    5687
    5685    5686    5688    5685    5686    5689    5685    5695    5692
    5685    5695    5696    5686    5685    5695    5686    5689    5690
    5686    5689    5691    5686    5689    5692    5687    5686    5688
    5687    5686    5689    5688    5686    5689    5689    5692    5693
    5689    5692    5694    5689    5692    5695    5690    5689    5691
    5690    5689    5692    5691    5689    5692    5692    5695    5696
    5693    5692    5694    5693    5692    5695    5694    5692    5695
    5697    5701    5702    5697    5701    5711    5698    5697    5699
    5698    5697    5700    5698    5697    5701    5699    5697    5700
    5699    5697    5701    5700    5697    5701    5701    5702    5703
    5701    5702    5704    5701    5702    5705    5701    5711    5708
    5701    5711    5712    5702    5701    5711    5702    5705    5706
    5702    5705    5707    5702    5705    5708    5703    5702    5704
    5703    5702    5705    5704    5702    5705    5705    5708    5709
    5705    5708    5710    5705    5708    5711    5706    5705    5707
    5706    5705    5708    5707    5705    5708    5708    5711    5712
    5709    5708    5710    5709    5708    5711    5710    5708    5711
    5713    5717    5718    5713    5717    5727    5714    5713    5715
    5714    5713    5716    5714    5713    5717    5715    5713    5716
    5715    5713    5717    5716    5713    5717    5717    5718    5719
    5717    5718    5720    5717    5718    5721    5717    5727    5724
    5717    5727    5728    5718    5717    5727    5718    5721    5722
    5718    5721    5723    5718    5721    5724    5719    5718    5720
    5719    5718    5721    5720    5718    5721    5721    5724    5725
    5721    5724    5726    5721    5724    5727    5722    5721    5723
    5722    5721    5724    5723    5721    5724    5724    5727    5728
    5725    5724    5726    5725    5724    5727    5726    5724    5727
    5729    5733    5734    5729    5733    5743    5730    5729    5731
    5730    5729    5732    5730    5729    5733    5731    5729    5732
    5731    5729    5733    5732    5729    5733    5733    5734    5735
    5733    5734    5736    5733    5734    5737    5733    5743    5740
    5733    5743    5744    5734    5733    5743    5734    5737    5738
    5734    5737    5739    5734    5737    5740    5735    5734    5736
    5735    5734    5737    5736    5734    5737    5737    5740    5741
    5737    5740    5742    5737    5740    5743    5738    5737    5739
    5738    5737    5740    5739    5737    5740    5740    5743    5744
    5741    5740    5742    5741    5740    5743    5742    5740    5743
    5745    5749    5750    5745    5749    5759    5746    5745    5747
    5746    5745    5748    5746    5745    5749    5747    5745    5748
    5747    5745    5749    5748    5745    5749    5749    5750    5751
    5749    5750    5752    5749    5750    5753    5749    5759    5756
    5749    5759    5760    5750    5749    5759    5750    5753    5754
    5750    5753    5755    5750    5753    5756    5751    5750    5752
    5751    5750    5753    5752    5750    5753    5753    5756    5757
    5753    5756    5758    5753    5756    5759    5754    5753    5755
    5754    5753    5756    5755    5753    5756    5756    5759    5760
    5757    5756    5758    5757    5756    5759    5758    5756    5759
    5761    5765    5766    5761    5765    5775    5762    5761    5763
    5762    5761    5764    5762    5761    5765    5763    5761    5764
    5763    5761    5765    5764    5761    5765    5765    5766    5767
    5765    5766    5768    5765    5766    5769    5765    5775    5772
    5765    5775    5776    5766    5765    5775    5766    5769    5770
    5766    5769    5771    5766    5769    5772    5767    5766    5768
    5767    5766    5769    5768    5766    5769    5769    5772    5773
    5769    5772    5774    5769    5772    5775    5770    5769    5771
    5770    5769    5772    5771    5769    5772    5772    5775    5776
    5773    5772    5774    5773    5772    5775    5774    5772    5775
    5777    5781    5782    5777    5781    5791    5778    5777    5779
    5778    5777    5780    5778    5777    5781    5779    5777    5780
    5779    5777    5781    5780    5777    5781    5781    5782    5783
    5781    5782    5784    5781    5782    5785    5781    5791    5788
    5781    5791    5792    5782    5781    5791    5782    5785    5786
    5782    5785    5787    5782    5785    5788    5783    5782    5784
    5783    5782    5785    5784    5782    5785    5785    5788    5789
    5785    5788    5790    5785    5788    5791    5786    5785    5787
    5786    5785    5788    5787    5785    5788    5788    5791    5792
    5789    5788    5790    5789    5788    5791    5790    5788    5791
    5793    5797    5798    5793    5797    5807    5794    5793    5795
    5794    5793    5796    5794    5793    5797    5795    5793    5796
    5795    5793    5797    5796    5793    5797    5797    5798    5799
    5797    5798    5800    5797    5798    5801    5797    5807    5804
    5797    5807    5808    5798    5797    5807    5798    5801    5802
    5798    5801    5803    5798    5801    5804    5799    5798    5800
    5799    5798    5801    5800    5798    5801    5801    5804    5805
    5801    5804    5806    5801    5804    5807    5802    5801    5803
    5802    5801    5804    5803    5801    5804    5804    5807    5808
    5805    5804    5806    5805    5804    5807    5806    5804    5807
    5809    5813    5814    5809    5813    5823    5810    5809    5811
    5810    5809    5812    5810    5809    5813    5811    5809    5812
    5811    5809    5813    5812    5809    5813    5813    5814    5815
    5813    5814    5816    5813    5814    5817    5813    5823    5820
    5813    5823    5824    5814    5813    5823    5814    5817    5818
    5814    5817    5819    5814    5817    5820    5815    5814    5816
    5815    5814    5817    5816    5814    5817    5817    5820    5821
    5817    5820    5822    5817    5820    5823    5818    5817    5819
    5818    5817    5820    5819    5817    5820    5820    5823    5824
    5821    5820    5822    5821    5820    5823    5822    5820    5823
    5825    5829    5830    5825    5829    5839    5826    5825    5827
    5826    5825    5828    5826    5825    5829    5827    5825    5828
    5827    5825    5829    5828    5825    5829    5829    5830    5831
    5829    5830    5832    5829    5830    5833    5829    5839    5836
    5829    5839    5840    5830    5829    5839    5830    5833    5834
    5830    5833    5835    5830    5833    5836    5831    5830    5832
    5831    5830    5833    5832    5830    5833    5833    5836    5837
    5833    5836    5838    5833    5836    5839    5834    5833    5835
    5834    5833    5836    5835    5833    5836    5836    5839    5840
    5837    5836    5838    5837    5836    5839    5838    5836    5839
    5841    5845    5846    5841    5845    5855    5842    5841    5843
    5842    5841    5844    5842    5841    5845    5843    5841    5844
    5843    5841    5845    5844    5841    5845    5845    5846    5847
    5845    5846    5848    5845    5846    5849    5845    5855    5852
    5845    5855    5856    5846    5845    5855    5846    5849    5850
    5846    5849    5851    5846    5849    5852    5847    5846    5848
    5847    5846    5849    5848    5846    5849    5849    5852    5853
    5849    5852    5854    5849    5852    5855    5850    5849    5851
    5850    5849    5852    5851    5849    5852    5852    5855    5856
    5853    5852    5854    5853    5852    5855    5854    5852    5855
    5857    5861    5862    5857    5861    5871    5858    5857    5859
    5858    5857    5860    5858    5857    5861    5859    5857    5860
    5859    5857    5861    5860    5857    5861    5861    5862    5863
    5861    5862    5864    5861    5862    5865    5861    5871    5868
    5861    5871    5872    5862    5861    5871    5862    5865    5866
    5862    5865    5867    5862    5865    5868    5863    5862    5864
    5863    5862    5865    5864    5862    5865    5865    5868    5869
    5865    5868    5870    5865    5868    5871    5866    5865    5867
    5866    5865    5868    5867    5865    5868    5868    5871    5872
    5869    5868    5870    5869    5868    5871    5870    5868    5871
    5873    5877    5878    5873    5877    5887    5874    5873    5875
    5874    5873    5876    5874    5873    5877    5875    5873    5876
    5875    5873    5877    5876    5873    5877    5877    5878    5879
    5877    5878    5880    5877    5878    5881    5877    5887    5884
    5877    5887    5888    5878    5877    5887    5878    5881    5882
    5878    5881    5883    5878    5881    5884    5879    5878    5880
    5879    5878    5881    5880    5878    5881    5881    5884    5885
    5881    5884    5886    5881    5884    5887    5882    5881    5883
    5882    5881    5884    5883    5881    5884    5884    5887    5888
    5885    5884    5886    5885    5884    5887    5886    5884    5887
    5889    5893    5894    5889    5893    5903    5890    5889    5891
    5890    5889    5892    5890    5889    5893    5891    5889    5892
    5891    5889    5893    5892    5889    5893    5893    5894    5895
    5893    5894    5896    5893    5894    5897    5893    5903    5900
    5893    5903    5904    5894    5893    5903    5894    5897    5898
    5894    5897    5899    5894    5897    5900    5895    5894    5896
    5895    5894    5897    5896    5894    5897    5897    5900    5901
    5897    5900    5902    5897    5900    5903    5898    5897    5899
    5898    5897    5900    5899    5897    5900    5900    5903    5904
    5901    5900    5902    5901    5900    5903    5902    5900    5903
    5905    5909    5910    5905    5909    5919    5906    5905    5907
    5906    5905    5908    5906    5905    5909    5907    5905    5908
    5907    5905    5909    5908    5905    5909    5909    5910    5911
    5909    5910    5912    5909    5910    5913    5909    5919    5916
    5909    5919    5920    5910    5909    5919    5910    5913    5914
    5910    5913    5915    5910    5913    5916    5911    5910    5912
    5911    5910    5913    5912    5910    5913    5913    5916    5917
    5913    5916    5918    5913    5916    5919    5914    5913    5915
    5914    5913    5916    5915    5913    5916    5916    5919    5920
    5917    5916    5918    5917    5916    5919    5918    5916    5919
    5921    5925    5926    5921    5925    5935    5922    5921    5923
    5922    5921    5924    5922    5921    5925    5923    5921    5924
    5923    5921    5925    5924    5921    5925    5925    5926    5927
    5925    5926    5928    5925    5926    5929    5925    5935    5932
    5925    5935    5936    5926    5925    5935    5926    5929    5930
    5926    5929    5931    5926    5929    5932    5927    5926    5928
    5927    5926    5929    5928    5926    5929    5929    5932    5933
    5929    5932    5934    5929    5932    5935    5930    5929    5931
    5930    5929    5932    5931    5929    5932    5932    5935    5936
    5933    5932    5934    5933    5932    5935    5934    5932    5935
    5937    5941    5942    5937    5941    5951    5938    5937    5939
    5938    5937    5940    5938    5937    5941    5939    5937    5940
    5939    5937    5941    5940    5937    5941    5941    5942    5943
    5941    5942    5944    5941    5942    5945    5941    5951    5948
    5941    5951    5952    5942    5941    5951    5942    5945    5946
    5942    5945    5947    5942    5945    5948    5943    5942    5944
    5943    5942    5945    5944    5942    5945    5945    5948    5949
    5945    5948    5950    5945    5948    5951    5946    5945    5947
    5946    5945    5948    5947    5945    5948    5948    5951    5952
    5949    5948    5950    5949    5948    5951    5950    5948    5951
    5953    5957    5958    5953    5957    5967    5954    5953    5955
    5954    5953    5956    5954    5953    5957    5955    5953    5956
    5955    5953    5957    5956    5953    5957    5957    5958    5959
    5957    5958    5960    5957    5958    5961    5957    5967    5964
    5957    5967    5968    5958    5957    5967    5958    5961    5962
    5958    5961    5963    5958    5961    5964    5959    5958    5960
    5959    5958    5961    5960    5958    5961    5961    5964    5965
    5961    5964    5966    5961    5964    5967    5962    5961    5963
    5962    5961    5964    5963    5961    5964    5964    5967    5968
    5965    5964    5966    5965    5964    5967    5966    5964    5967
    5969    5973    5974    5969    5973    5983    5970    5969    5971
    5970    5969    5972    5970    5969    5973    5971    5969    5972
    5971    5969    5973    5972    5969    5973    5973    5974    5975
    5973    5974    5976    5973    5974    5977    5973    5983    5980
    5973    5983    5984    5974    5973    5983    5974    5977    5978
    5974    5977    5979    5974    5977    5980    5975    5974    5976
    5975    5974    5977    5976    5974    5977    5977    5980    5981
    5977    5980    5982    5977    5980    5983    5978    5977    5979
    5978    5977    5980    5979    5977    5980    5980    5983    5984
    5981    5980    5982    5981    5980    5983    5982    5980    5983
    5985    5989    5990    5985    5989    5999    5986    5985    5987
    5986    5985    5988    5986    5985    5989    5987    5985    5988
    5987    5985    5989    5988    5985    5989    5989    5990    5991
    5989    5990    5992    5989    5990    5993    5989    5999    5996
    5989    5999    6000    5990    5989    5999    5990    5993    5994
    5990    5993    5995    5990    5993    5996    5991    5990    5992
    5991    5990    5993    5992    5990    5993    5993    5996    5997
    5993    5996    5998    5993    5996    5999    5994    5993    5995
    5994    5993    5996    5995    5993    5996    5996    5999    6000
    5997    5996    5998    5997    5996    5999    5998    5996    5999
    6001    6005    6006    6001    6005    6015    6002    6001    6003
    6002    6001    6004    6002    6001    6005    6003    6001    6004
    6003    6001    6005    6004    6001    6005    6005    6006    6007
    6005    6006    6008    6005    6006    6009    6005    6015    6012
    6005    6015    6016    6006    6005    6015    6006    6009    6010
    6006    6009    6011    6006    6009    6012    6007    6006    6008
    6007    6006    6009    6008    6006    6009    6009    6012    6013
    6009    6012    6014    6009    6012    6015    6010    6009    6011
    6010    6009    6012    6011    6009    6012    6012    6015    6016
    6013    6012    6014    6013    6012    6015    6014    6012    6015
    6017    6021    6022    6017    6021    6031    6018    6017    6019
    6018    6017    6020    6018    6017    6021    6019    6017    6020
    6019    6017    6021    6020    6017    6021    6021    6022    6023
    6021    6022    6024    6021    6022    6025    6021    6031    6028
    6021    6031    6032    6022    6021    6031    6022    6025    6026
    6022    6025    6027    6022    6025    6028    6023    6022    6024
    6023    6022    6025    6024    6022    6025    6025    6028    6029
    6025    6028    6030    6025    6028    6031    6026    6025    6027
    6026    6025    6028    6027    6025    6028    6028    6031    6032
    6029    6028    6030    6029    6028    6031    6030    6028    6031
    6033    6037    6038    6033    6037    6047    6034    6033    6035
    6034    6033    6036    6034    6033    6037    6035    6033    6036
    6035    6033    6037    6036    6033    6037    6037    6038    6039
    6037    6038    6040    6037    6038    6041    6037    6047    6044
    6037    6047    6048    6038    6037    6047    6038    6041    6042
    6038    6041    6043    6038    6041    6044    6039    6038    6040
    6039    6038    6041    6040    6038    6041    6041    6044    6045
    6041    6044    6046    6041    6044    6047    6042    6041    6043
    6042    6041    6044    6043    6041    6044    6044    6047    6048
    6045    6044    6046    6045    6044    6047    6046    6044    6047
    6049    6053    6054    6049    6053    6063    6050    6049    6051
    6050    6049    6052    6050    6049    6053    6051    6049    6052
    6051    6049    6053    6052    6049    6053    6053    6054    6055
    6053    6054    6056    6053    6054    6057    6053    6063    6060
    6053    6063    6064    6054    6053    6063    6054    6057    6058
    6054    6057    6059    6054    6057    6060    6055    6054    6056
    6055    6054    6057    6056    6054    6057    6057    6060    6061
    6057    6060    6062    6057    6060    6063    6058    6057    6059
    6058    6057    6060    6059    6057    6060    6060    6063    6064
    6061    6060    6062    6061    6060    6063    6062    6060    6063
    6065    6069    6070    6065    6069    6079    6066    6065    6067
    6066    6065    6068    6066    6065    6069    6067    6065    6068
    6067    6065    6069    6068    6065    6069    6069    6070    6071
    6069    6070    6072    6069    6070    6073    6069    6079    6076
    6069    6079    6080    6070    6069    6079    6070    6073    6074
    6070    6073    6075    6070    6073    6076    6071    6070    6072
    6071    6070    6073    6072    6070    6073    6073    6076    6077
    6073    6076    6078    6073    6076    6079    6074    6073    6075
    6074    6073    6076    6075    6073    6076    6076    6079    6080
    6077    6076    6078    6077    6076    6079    6078    6076    6079
    6081    6085    6086    6081    6085    6095    6082    6081    6083
    6082    6081    6084    6082    6081    6085    6083    6081    6084
    6083    6081    6085    6084    6081    6085    6085    6086    6087
    6085    6086    6088    6085    6086    6089    6085    6095    6092
    6085    6095    6096    6086    6085    6095    6086    6089    6090
    6086    6089    6091    6086    6089    6092    6087    6086    6088
    6087    6086    6089    6088    6086    6089    6089    6092    6093
    6089    6092    6094    6089    6092    6095    6090    6089    6091
    6090    6089    6092    6091    6089    6092    6092    6095    6096
    6093    6092    6094    6093    6092    6095    6094    6092    6095
    6097    6101    6102    6097    6101    6111    6098    6097    6099
    6098    6097    6100    6098    6097    6101    6099    6097    6100
    6099    6097    6101    6100    6097    6101    6101    6102    6103
    6101    6102    6104    6101    6102    6105    6101    6111    6108
    6101    6111    6112    6102    6101    6111    6102    6105    6106
    6102    6105    6107    6102    6105    6108    6103    6102    6104
    6103    6102    6105    6104    6102    6105    6105    6108    6109
    6105    6108    6110    6105    6108    6111    6106    6105    6107
    6106    6105    6108    6107    6105    6108    6108    6111    6112
    6109    6108    6110    6109    6108    6111    6110    6108    6111
    6113    6117    6118    6113    6117    6127    6114    6113    6115
    6114    6113    6116    6114    6113    6117    6115    6113    6116
    6115    6113    6117    6116    6113    6117    6117    6118    6119
    6117    6118    6120    6117    6118    6121    6117    6127    6124
    6117    6127    6128    6118    6117    6127    6118    6121    6122
    6118    6121    6123    6118    6121    6124    6119    6118    6120
    6119    6118    6121    6120    6118    6121    6121    6124    6125
    6121    6124    6126    6121    6124    6127    6122    6121    6123
    6122    6121    6124    6123    6121    6124    6124    6127    6128
    6125    6124    6126    6125    6124    6127    6126    6124    6127
    6129    6133    6134    6129    6133    6143    6130    6129    6131
    6130    6129    6132    6130    6129    6133    6131    6129    6132
    6131    6129    6133    6132    6129    6133    6133    6134    6135
    6133    6134    6136    6133    6134    6137    6133    6143    6140
    6133    6143    6144    6134    6133    6143    6134    6137    6138
    6134    6137    6139    6134    6137    6140    6135    6134    6136
    6135    6134    6137    6136    6134    6137    6137    6140    6141
    6137    6140    6142    6137    6140    6143    6138    6137    6139
    6138    6137    6140    6139    6137    6140    6140    6143    6144
    6141    6140    6142    6141    6140    6143    6142    6140    6143
    6145    6149    6150    6145    6149    6159    6146    6145    6147
    6146    6145    6148    6146    6145    6149    6147    6145    6148
    6147    6145    6149    6148    6145    6149    6149    6150    6151
    6149    6150    6152    6149    6150    6153    6149    6159    6156
    6149    6159    6160    6150    6149    6159    6150    6153    6154
    6150    6153    6155    6150    6153    6156    6151    6150    6152
    6151    6150    6153    6152    6150    6153    6153    6156    6157
    6153    6156    6158    6153    6156    6159    6154    6153    6155
    6154    6153    6156    6155    6153    6156    6156    6159    6160
    6157    6156    6158    6157    6156    6159    6158    6156    6159
    6161    6165    6166    6161    6165    6175    6162    6161    6163
    6162    6161    6164    6162    6161    6165    6163    6161    6164
    6163    6161    6165    6164    6161    6165    6165    6166    6167
    6165    6166    6168    6165    6166    6169    6165    6175    6172
    6165    6175    6176    6166    6165    6175    6166    6169    6170
    6166    6169    6171    6166    6169    6172    6167    6166    6168
    6167    6166    6169    6168    6166    6169    6169    6172    6173
    6169    6172    6174    6169    6172    6175    6170    6169    6171
    6170    6169    6172    6171    6169    6172    6172    6175    6176
    6173    6172    6174    6173    6172    6175    6174    6172    6175
    6177    6181    6182    6177    6181    6191    6178    6177    6179
    6178    6177    6180    6178    6177    6181    6179    6177    6180
    6179    6177    6181    6180    6177    6181    6181    6182    6183
    6181    6182    6184    6181    6182    6185    6181    6191    6188
    6181    6191    6192    6182    6181    6191    6182    6185    6186
    6182    6185    6187    6182    6185    6188    6183    6182    6184
    6183    6182    6185    6184    6182    6185    6185    6188    6189
    6185    6188    6190    6185    6188    6191    6186    6185    6187
    6186    6185    6188    6187    6185    6188    6188    6191    6192
    6189    6188    6190    6189    6188    6191    6190    6188    6191
    6193    6197    6198    6193    6197    6207    6194    6193    6195
    6194    6193    6196    6194    6193    6197    6195    6193    6196
    6195    6193    6197    6196    6193    6197    6197    6198    6199
    6197    6198    6200    6197    6198    6201    6197    6207    6204
    6197    6207    6208    6198    6197    6207    6198    6201    6202
    6198    6201    6203    6198    6201    6204    6199    6198    6200
    6199    6198    6201    6200    6198    6201    6201    6204    6205
    6201    6204    6206    6201    6204    6207    6202    6201    6203
    6202    6201    6204    6203    6201    6204    6204    6207    6208
    6205    6204    6206    6205    6204    6207    6206    6204    6207
    6209    6213    6214    6209    6213    6223    6210    6209    6211
    6210    6209    6212    6210    6209    6213    6211    6209    6212
    6211    6209    6213    6212    6209    6213    6213    6214    6215
    6213    6214    6216    6213    6214    6217    6213    6223    6220
    6213    6223    6224    6214    6213    6223    6214    6217    6218
    6214    6217    6219    6214    6217    6220    6215    6214    6216
    6215    6214    6217    6216    6214    6217    6217    6220    6221
    6217    6220    6222    6217    6220    6223    6218    6217    6219
    6218    6217    6220    6219    6217    6220    6220    6223    6224
    6221    6220    6222    6221    6220    6223    6222    6220    6223
    6225    6229    6230    6225    6229    6239    6226    6225    6227
    6226    6225    6228    6226    6225    6229    6227    6225    6228
    6227    6225    6229    6228    6225    6229    6229    6230    6231
    6229    6230    6232    6229    6230    6233    6229    6239    6236
    6229    6239    6240    6230    6229    6239    6230    6233    6234
    6230    6233    6235    6230    6233    6236    6231    6230    6232
    6231    6230    6233    6232    6230    6233    6233    6236    6237
    6233    6236    6238    6233    6236    6239    6234    6233    6235
    6234    6233    6236    6235    6233    6236    6236    6239    6240
    6237    6236    6238    6237    6236    6239    6238    6236    6239
    6241    6245    6246    6241    6245    6255    6242    6241    6243
    6242    6241    6244    6242    6241    6245    6243    6241    6244
    6243    6241    6245    6244    6241    6245    6245    6246    6247
    6245    6246    6248    6245    6246    6249    6245    6255    6252
    6245    6255    6256    6246    6245    6255    6246    6249    6250
    6246    6249    6251    6246    6249    6252    6247    6246    6248
    6247    6246    6249    6248    6246    6249    6249    6252    6253
    6249    6252    6254    6249    6252    6255    6250    6249    6251
    6250    6249    6252    6251    6249    6252    6252    6255    6256
    6253    6252    6254    6253    6252    6255    6254    6252    6255
    6257    6261    6262    6257    6261    6271    6258    6257    6259
    6258    6257    6260    6258    6257    6261    6259    6257    6260
    6259    6257    6261    6260    6257    6261    6261    6262    6263
    6261    6262    6264    6261    6262    6265    6261    6271    6268
    6261    6271    6272    6262    6261    6271    6262    6265    6266
    6262    6265    6267    6262    6265    6268    6263    6262    6264
    6263    6262    6265    6264    6262    6265    6265    6268    6269
    6265    6268    6270    6265    6268    6271    6266    6265    6267
    6266    6265    6268    6267    6265    6268    6268    6271    6272
    6269    6268    6270    6269    6268    6271    6270    6268    6271
    6273    6277    6278    6273    6277    6287    6274    6273    6275
    6274    6273    6276    6274    6273    6277    6275    6273    6276
    6275    6273    6277    6276    6273    6277    6277    6278    6279
    6277    6278    6280    6277    6278    6281    6277    6287    6284
    6277    6287    6288    6278    6277    6287    6278    6281    6282
    6278    6281    6283    6278    6281    6284    6279    6278    6280
    6279    6278    6281    6280    6278    6281    6281    6284    6285
    6281    6284    6286    6281    6284    6287    6282    6281    6283
    6282    6281    6284    6283    6281    6284    6284    6287    6288
    6285    6284    6286    6285    6284    6287    6286    6284    6287
    6289    6293    6294    6289    6293    6303    6290    6289    6291
    6290    6289    6292    6290    6289    6293    6291    6289    6292
    6291    6289    6293    6292    6289    6293    6293    6294    6295
    6293    6294    6296    6293    6294    6297    6293    6303    6300
    6293    6303    6304    6294    6293    6303    6294    6297    6298
    6294    6297    6299    6294    6297    6300    6295    6294    6296
    6295    6294    6297    6296    6294    6297    6297    6300    6301
    6297    6300    6302    6297    6300    6303    6298    6297    6299
    6298    6297    6300    6299    6297    6300    6300    6303    6304
    6301    6300    6302    6301    6300    6303    6302    6300    6303
    6305    6309    6310    6305    6309    6319    6306    6305    6307
    6306    6305    6308    6306    6305    6309    6307    6305    6308
    6307    6305    6309    6308    6305    6309    6309    6310    6311
    6309    6310    6312    6309    6310    6313    6309    6319    6316
    6309    6319    6320    6310    6309    6319    6310    6313    6314
    6310    6313    6315    6310    6313    6316    6311    6310    6312
    6311    6310    6313    6312    6310    6313    6313    6316    6317
    6313    6316    6318    6313    6316    6319    6314    6313    6315
    6314    6313    6316    6315    6313    6316    6316    6319    6320
    6317    6316    6318    6317    6316    6319    6318    6316    6319
    6321    6325    6326    6321    6325    6335    6322    6321    6323
    6322    6321    6324    6322    6321    6325    6323    6321    6324
    6323    6321    6325    6324    6321    6325    6325    6326    6327
    6325    6326    6328    6325    6326    6329    6325    6335    6332
    6325    6335    6336    6326    6325    6335    6326    6329    6330
    6326    6329    6331    6326    6329    6332    6327    6326    6328
    6327    6326    6329    6328    6326    6329    6329    6332    6333
    6329    6332    6334    6329    6332    6335    6330    6329    6331
    6330    6329    6332    6331    6329    6332    6332    6335    6336
    6333    6332    6334    6333    6332    6335    6334    6332    6335
    6337    6341    6342    6337    6341    6351    6338    6337    6339
    6338    6337    6340    6338    6337    6341    6339    6337    6340
    6339    6337    6341    6340    6337    6341    6341    6342    6343
    6341    6342    6344    6341    6342    6345    6341    6351    6348
    6341    6351    6352    6342    6341    6351    6342    6345    6346
    6342    6345    6347    6342    6345    6348    6343    6342    6344
    6343    6342    6345    6344    6342    6345    6345    6348    6349
    6345    6348    6350    6345    6348    6351    6346    6345    6347
    6346    6345    6348    6347    6345    6348    6348    6351    6352
    6349    6348    6350    6349    6348    6351    6350    6348    6351
    6353    6357    6358    6353    6357    6367    6354    6353    6355
    6354    6353    6356    6354    6353    6357    6355    6353    6356
    6355    6353    6357    6356    6353    6357    6357    6358    6359
    6357    6358    6360    6357    6358    6361    6357    6367    6364
    6357    6367    6368    6358    6357    6367    6358    6361    6362
    6358    6361    6363    6358    6361    6364    6359    6358    6360
    6359    6358    6361    6360    6358    6361    6361    6364    6365
    6361    6364    6366    6361    6364    6367    6362    6361    6363
    6362    6361    6364    6363    6361    6364    6364    6367    6368
    6365    6364    6366    6365    6364    6367    6366    6364    6367
    6369    6373    6374    6369    6373    6383    6370    6369    6371
    6370    6369    6372    6370    6369    6373    6371    6369    6372
    6371    6369    6373    6372    6369    6373    6373    6374    6375
    6373    6374    6376    6373    6374    6377    6373    6383    6380
    6373    6383    6384    6374    6373    6383    6374    6377    6378
    6374    6377    6379    6374    6377    6380    6375    6374    6376
    6375    6374    6377    6376    6374    6377    6377    6380    6381
    6377    6380    6382    6377    6380    6383    6378    6377    6379
    6378    6377    6380    6379    6377    6380    6380    6383    6384
    6381    6380    6382    6381    6380    6383    6382    6380    6383
    6385    6389    6390    6385    6389    6399    6386    6385    6387
    6386    6385    6388    6386    6385    6389    6387    6385    6388
    6387    6385    6389    6388    6385    6389    6389    6390    6391
    6389    6390    6392    6389    6390    6393    6389    6399    6396
    6389    6399    6400    6390    6389    6399    6390    6393    6394
    6390    6393    6395    6390    6393    6396    6391    6390    6392
    6391    6390    6393    6392    6390    6393    6393    6396    6397
    6393    6396    6398    6393    6396    6399    6394    6393    6395
    6394    6393    6396    6395    6393    6396    6396    6399    6400
    6397    6396    6398    6397    6396    6399    6398    6396    6399
    6401    6405    6406    6401    6405    6415    6402    6401    6403
    6402    6401    6404    6402    6401    6405    6403    6401    6404
    6403    6401    6405    6404    6401    6405    6405    6406    6407
    6405    6406    6408    6405    6406    6409    6405    6415    6412
    6405    6415    6416    6406    6405    6415    6406    6409    6410
    6406    6409    6411    6406    6409    6412    6407    6406    6408
    6407    6406    6409    6408    6406    6409    6409    6412    6413
    6409    6412    6414    6409    6412    6415    6410    6409    6411
    6410    6409    6412    6411    6409    6412    6412    6415    6416
    6413    6412    6414    6413    6412    6415    6414    6412    6415
    6417    6421    6422    6417    6421    6431    6418    6417    6419
    6418    6417    6420    6418    6417    6421    6419    6417    6420
    6419    6417    6421    6420    6417    6421    6421    6422    6423
    6421    6422    6424    6421    6422    6425    6421    6431    6428
    6421    6431    6432    6422    6421    6431    6422    6425    6426
    6422    6425    6427    6422    6425    6428    6423    6422    6424
    6423    6422    6425    6424    6422    6425    6425    6428    6429
    6425    6428    6430    6425    6428    6431    6426    6425    6427
    6426    6425    6428    6427    6425    6428    6428    6431    6432
    6429    6428    6430    6429    6428    6431    6430    6428    6431
    6433    6437    6438    6433    6437    6447    6434    6433    6435
    6434    6433    6436    6434    6433    6437    6435    6433    6436
    6435    6433    6437    6436    6433    6437    6437    6438    6439
    6437    6438    6440    6437    6438    6441    6437    6447    6444
    6437    6447    6448    6438    6437    6447    6438    6441    6442
    6438    6441    6443    6438    6441    6444    6439    6438    6440
    6439    6438    6441    6440    6438    6441    6441    6444    6445
    6441    6444    6446    6441    6444    6447    6442    6441    6443
    6442    6441    6444    6443    6441    6444    6444    6447    6448
    6445    6444    6446    6445    6444    6447    6446    6444    6447
    6449    6453    6454    6449    6453    6463    6450    6449    6451
    6450    6449    6452    6450    6449    6453    6451    6449    6452
    6451    6449    6453    6452    6449    6453    6453    6454    6455
    6453    6454    6456    6453    6454    6457    6453    6463    6460
    6453    6463    6464    6454    6453    6463    6454    6457    6458
    6454    6457    6459    6454    6457    6460    6455    6454    6456
    6455    6454    6457    6456    6454    6457    6457    6460    6461
    6457    6460    6462    6457    6460    6463    6458    6457    6459
    6458    6457    6460    6459    6457    6460    6460    6463    6464
    6461    6460    6462    6461    6460    6463    6462    6460    6463
    6465    6469    6470    6465    6469    6479    6466    6465    6467
    6466    6465    6468    6466    6465    6469    6467    6465    6468
    6467    6465    6469    6468    6465    6469    6469    6470    6471
    6469    6470    6472    6469    6470    6473    6469    6479    6476
    6469    6479    6480    6470    6469    6479    6470    6473    6474
    6470    6473    6475    6470    6473    6476    6471    6470    6472
    6471    6470    6473    6472    6470    6473    6473    6476    6477
    6473    6476    6478    6473    6476    6479    6474    6473    6475
    6474    6473    6476    6475    6473    6476    6476    6479    6480
    6477    6476    6478    6477    6476    6479    6478    6476    6479
    6481    6485    6486    6481    6485    6495    6482    6481    6483
    6482    6481    6484    6482    6481    6485    6483    6481    6484
    6483    6481    6485    6484    6481    6485    6485    6486    6487
    6485    6486    6488    6485    6486    6489    6485    6495    6492
    6485    6495    6496    6486    6485    6495    6486    6489    6490
    6486    6489    6491    6486    6489    6492    6487    6486    6488
    6487    6486    6489    6488    6486    6489    6489    6492    6493
    6489    6492    6494    6489    6492    6495    6490    6489    6491
    6490    6489    6492    6491    6489    6492    6492    6495    6496
    6493    6492    6494    6493    6492    6495    6494    6492    6495
    6497    6501    6502    6497    6501    6511    6498    6497    6499
    6498    6497    6500    6498    6497    6501    6499    6497    6500
    6499    6497    6501    6500    6497    6501    6501    6502    6503
    6501    6502    6504    6501    6502    6505    6501    6511    6508
    6501    6511    6512    6502    6501    6511    6502    6505    6506
    6502    6505    6507    6502    6505    6508    6503    6502    6504
    6503    6502    6505    6504    6502    6505    6505    6508    6509
    6505    6508    6510    6505    6508    6511    6506    6505    6507
    6506    6505    6508    6507    6505    6508    6508    6511    6512
    6509    6508    6510    6509    6508    6511    6510    6508    6511
    6513    6517    6518    6513    6517    6527    6514    6513    6515
    6514    6513    6516    6514    6513    6517    6515    6513    6516
    6515    6513    6517    6516    6513    6517    6517    6518    6519
    6517    6518    6520    6517    6518    6521    6517    6527    6524
    6517    6527    6528    6518    6517    6527    6518    6521    6522
    6518    6521    6523    6518    6521    6524    6519    6518    6520
    6519    6518    6521    6520    6518    6521    6521    6524    6525
    6521    6524    6526    6521    6524    6527    6522    6521    6523
    6522    6521    6524    6523    6521    6524    6524    6527    6528
    6525    6524    6526    6525    6524    6527    6526    6524    6527
    6529    6533    6534    6529    6533    6543    6530    6529    6531
    6530    6529    6532    6530    6529    6533    6531    6529    6532
    6531    6529    6533    6532    6529    6533    6533    6534    6535
    6533    6534    6536    6533    6534    6537    6533    6543    6540
    6533    6543    6544    6534    6533    6543    6534    6537    6538
    6534    6537    6539    6534    6537    6540    6535    6534    6536
    6535    6534    6537    6536    6534    6537    6537    6540    6541
    6537    6540    6542    6537    6540    6543    6538    6537    6539
    6538    6537    6540    6539    6537    6540    6540    6543    6544
    6541    6540    6542    6541    6540    6543    6542    6540    6543
    6545    6549    6550    6545    6549    6559    6546    6545    6547
    6546    6545    6548    6546    6545    6549    6547    6545    6548
    6547    6545    6549    6548    6545    6549    6549    6550    6551
    6549    6550    6552    6549    6550    6553    6549    6559    6556
    6549    6559    6560    6550    6549    6559    6550    6553    6554
    6550    6553    6555    6550    6553    6556    6551    6550    6552
    6551    6550    6553    6552    6550    6553    6553    6556    6557
    6553    6556    6558    6553    6556    6559    6554    6553    6555
    6554    6553    6556    6555    6553    6556    6556    6559    6560
    6557    6556    6558    6557    6556    6559    6558    6556    6559
    6561    6565    6566    6561    6565    6575    6562    6561    6563
    6562    6561    6564    6562    6561    6565    6563    6561    6564
    6563    6561    6565    6564    6561    6565    6565    6566    6567
    6565    6566    6568    6565    6566    6569    6565    6575    6572
    6565    6575    6576    6566    6565    6575    6566    6569    6570
    6566    6569    6571    6566    6569    6572    6567    6566    6568
    6567    6566    6569    6568    6566    6569    6569    6572    6573
    6569    6572    6574    6569    6572    6575    6570    6569    6571
    6570    6569    6572    6571    6569    6572    6572    6575    6576
    6573    6572    6574    6573    6572    6575    6574    6572    6575
    6577    6581    6582    6577    6581    6591    6578    6577    6579
    6578    6577    6580    6578    6577    6581    6579    6577    6580
    6579    6577    6581    6580    6577    6581    6581    6582    6583
    6581    6582    6584    6581    6582    6585    6581    6591    6588
    6581    6591    6592    6582    6581    6591    6582    6585    6586
    6582    6585    6587    6582    6585    6588    6583    6582    6584
    6583    6582    6585    6584    6582    6585    6585    6588    6589
    6585    6588    6590    6585    6588    6591    6586    6585    6587
    6586    6585    6588    6587    6585    6588    6588    6591    6592
    6589    6588    6590    6589    6588    6591    6590    6588    6591
    6593    6597    6598    6593    6597    6607    6594    6593    6595
    6594    6593    6596    6594    6593    6597    6595    6593    6596
    6595    6593    6597    6596    6593    6597    6597    6598    6599
    6597    6598    6600    6597    6598    6601    6597    6607    6604
    6597    6607    6608    6598    6597    6607    6598    6601    6602
    6598    6601    6603    6598    6601    6604    6599    6598    6600
    6599    6598    6601    6600    6598    6601    6601    6604    6605
    6601    6604    6606    6601    6604    6607    6602    6601    6603
    6602    6601    6604    6603    6601    6604    6604    6607    6608
    6605    6604    6606    6605    6604    6607    6606    6604    6607
    6609    6613    6614    6609    6613    6623    6610    6609    6611
    6610    6609    6612    6610    6609    6613    6611    6609    6612
    6611    6609    6613    6612    6609    6613    6613    6614    6615
    6613    6614    6616    6613    6614    6617    6613    6623    6620
    6613    6623    6624    6614    6613    6623    6614    6617    6618
    6614    6617    6619    6614    6617    6620    6615    6614    6616
    6615    6614    6617    6616    6614    6617    6617    6620    6621
    6617    6620    6622    6617    6620    6623    6618    6617    6619
    6618    6617    6620    6619    6617    6620    6620    6623    6624
    6621    6620    6622    6621    6620    6623    6622    6620    6623
    6625    6629    6630    6625    6629    6639    6626    6625    6627
    6626    6625    6628    6626    6625    6629    6627    6625    6628
    6627    6625    6629    6628    6625    6629    6629    6630    6631
    6629    6630    6632    6629    6630    6633    6629    6639    6636
    6629    6639    6640    6630    6629    6639    6630    6633    6634
    6630    6633    6635    6630    6633    6636    6631    6630    6632
    6631    6630    6633    6632    6630    6633    6633    6636    6637
    6633    6636    6638    6633    6636    6639    6634    6633    6635
    6634    6633    6636    6635    6633    6636    6636    6639    6640
    6637    6636    6638    6637    6636    6639    6638    6636    6639
    6641    6645    6646    6641    6645    6655    6642    6641    6643
    6642    6641    6644    6642    6641    6645    6643    6641    6644
    6643    6641    6645    6644    6641    6645    6645    6646    6647
    6645    6646    6648    6645    6646    6649    6645    6655    6652
    6645    6655    6656    6646    6645    6655    6646    6649    6650
    6646    6649    6651    6646    6649    6652    6647    6646    6648
    6647    6646    6649    6648    6646    6649    6649    6652    6653
    6649    6652    6654    6649    6652    6655    6650    6649    6651
    6650    6649    6652    6651    6649    6652    6652    6655    6656
    6653    6652    6654    6653    6652    6655    6654    6652    6655
    6657    6661    6662    6657    6661    6671    6658    6657    6659
    6658    6657    6660    6658    6657    6661    6659    6657    6660
    6659    6657    6661    6660    6657    6661    6661    6662    6663
    6661    6662    6664    6661    6662    6665    6661    6671    6668
    6661    6671    6672    6662    6661    6671    6662    6665    6666
    6662    6665    6667    6662    6665    6668    6663    6662    6664
    6663    6662    6665    6664    6662    6665    6665    6668    6669
    6665    6668    6670    6665    6668    6671    6666    6665    6667
    6666    6665    6668    6667    6665    6668    6668    6671    6672
    6669    6668    6670    6669    6668    6671    6670    6668    6671
    6673    6677    6678    6673    6677    6687    6674    6673    6675
    6674    6673    6676    6674    6673    6677    6675    6673    6676
    6675    6673    6677    6676    6673    6677    6677    6678    6679
    6677    6678    6680    6677    6678    6681    6677    6687    6684
    6677    6687    6688    6678    6677    6687    6678    6681    6682
    6678    6681    6683    6678    6681    6684    6679    6678    6680
    6679    6678    6681    6680    6678    6681    6681    6684    6685
    6681    6684    6686    6681    6684    6687    6682    6681    6683
    6682    6681    6684    6683    6681    6684    6684    6687    6688
    6685    6684    6686    6685    6684    6687    6686    6684    6687
    6689    6693    6694    6689    6693    6703    6690    6689    6691
    6690    6689    6692    6690    6689    6693    6691    6689    6692
    6691    6689    6693    6692    6689    6693    6693    6694    6695
    6693    6694    6696    6693    6694    6697    6693    6703    6700
    6693    6703    6704    6694    6693    6703    6694    6697    6698
    6694    6697    6699    6694    6697    6700    6695    6694    6696
    6695    6694    6697    6696    6694    6697    6697    6700    6701
    6697    6700    6702    6697    6700    6703    6698    6697    6699
    6698    6697    6700    6699    6697    6700    6700    6703    6704
    6701    6700    6702    6701    6700    6703    6702    6700    6703
    6705    6709    6710    6705    6709    6719    6706    6705    6707
    6706    6705    6708    6706    6705    6709    6707    6705    6708
    6707    6705    6709    6708    6705    6709    6709    6710    6711
    6709    6710    6712    6709    6710    6713    6709    6719    6716
    6709    6719    6720    6710    6709    6719    6710    6713    6714
    6710    6713    6715    6710    6713    6716    6711    6710    6712
    6711    6710    6713    6712    6710    6713    6713    6716    6717
    6713    6716    6718    6713    6716    6719    6714    6713    6715
    6714    6713    6716    6715    6713    6716    6716    6719    6720
    6717    6716    6718    6717    6716    6719    6718    6716    6719
    6721    6725    6726    6721    6725    6735    6722    6721    6723
    6722    6721    6724    6722    6721    6725    6723    6721    6724
    6723    6721    6725    6724    6721    6725    6725    6726    6727
    6725    6726    6728    6725    6726    6729    6725    6735    6732
    6725    6735    6736    6726    6725    6735    6726    6729    6730
    6726    6729    6731    6726    6729    6732    6727    6726    6728
    6727    6726    6729    6728    6726    6729    6729    6732    6733
    6729    6732    6734    6729    6732    6735    6730    6729    6731
    6730    6729    6732    6731    6729    6732    6732    6735    6736
    6733    6732    6734    6733    6732    6735    6734    6732    6735
    6737    6741    6742    6737    6741    6751    6738    6737    6739
    6738    6737    6740    6738    6737    6741    6739    6737    6740
    6739    6737    6741    6740    6737    6741    6741    6742    6743
    6741    6742    6744    6741    6742    6745    6741    6751    6748
    6741    6751    6752    6742    6741    6751    6742    6745    6746
    6742    6745    6747    6742    6745    6748    6743    6742    6744
    6743    6742    6745    6744    6742    6745    6745    6748    6749
    6745    6748    6750    6745    6748    6751    6746    6745    6747
    6746    6745    6748    6747    6745    6748    6748    6751    6752
    6749    6748    6750    6749    6748    6751    6750    6748    6751
    6753    6757    6758    6753    6757    6767    6754    6753    6755
    6754    6753    6756    6754    6753    6757    6755    6753    6756
    6755    6753    6757    6756    6753    6757    6757    6758    6759
    6757    6758    6760    6757    6758    6761    6757    6767    6764
    6757    6767    6768    6758    6757    6767    6758    6761    6762
    6758    6761    6763    6758    6761    6764    6759    6758    6760
    6759    6758    6761    6760    6758    6761    6761    6764    6765
    6761    6764    6766    6761    6764    6767    6762    6761    6763
    6762    6761    6764    6763    6761    6764    6764    6767    6768
    6765    6764    6766    6765    6764    6767    6766    6764    6767
    6769    6773    6774    6769    6773    6783    6770    6769    6771
    6770    6769    6772    6770    6769    6773    6771    6769    6772
    6771    6769    6773    6772    6769    6773    6773    6774    6775
    6773    6774    6776    6773    6774    6777    6773    6783    6780
    6773    6783    6784    6774    6773    6783    6774    6777    6778
    6774    6777    6779    6774    6777    6780    6775    6774    6776
    6775    6774    6777    6776    6774    6777    6777    6780    6781
    6777    6780    6782    6777    6780    6783    6778    6777    6779
    6778    6777    6780    6779    6777    6780    6780    6783    6784
    6781    6780    6782    6781    6780    6783    6782    6780    6783
    6785    6789    6790    6785    6789    6799    6786    6785    6787
    6786    6785    6788    6786    6785    6789    6787    6785    6788
    6787    6785    6789    6788    6785    6789    6789    6790    6791
    6789    6790    6792    6789    6790    6793    6789    6799    6796
    6789    6799    6800    6790    6789    6799    6790    6793    6794
    6790    6793    6795    6790    6793    6796    6791    6790    6792
    6791    6790    6793    6792    6790    6793    6793    6796    6797
    6793    6796    6798    6793    6796    6799    6794    6793    6795
    6794    6793    6796    6795    6793    6796    6796    6799    6800
    6797    6796    6798    6797    6796    6799    6798    6796    6799
    6801    6805    6806    6801    6805    6815    6802    6801    6803
    6802    6801    6804    6802    6801    6805    6803    6801    6804
    6803    6801    6805    6804    6801    6805    6805    6806    6807
    6805    6806    6808    6805    6806    6809    6805    6815    6812
    6805    6815    6816    6806    6805    6815    6806    6809    6810
    6806    6809    6811    6806    6809    6812    6807    6806    6808
    6807    6806    6809    6808    6806    6809    6809    6812    6813
    6809    6812    6814    6809    6812    6815    6810    6809    6811
    6810    6809    6812    6811    6809    6812    6812    6815    6816
    6813    6812    6814    6813    6812    6815    6814    6812    6815
    6817    6821    6822    6817    6821    6831    6818    6817    6819
    6818    6817    6820    6818    6817    6821    6819    6817    6820
    6819    6817    6821    6820    6817    6821    6821    6822    6823
    6821    6822    6824    6821    6822    6825    6821    6831    6828
    6821    6831    6832    6822    6821    6831    6822    6825    6826
    6822    6825    6827    6822    6825    6828    6823    6822    6824
    6823    6822    6825    6824    6822    6825    6825    6828    6829
    6825    6828    6830    6825    6828    6831    6826    6825    6827
    6826    6825    6828    6827    6825    6828    6828    6831    6832
    6829    6828    6830    6829    6828    6831    6830    6828    6831
    6833    6837    6838    6833    6837    6847    6834    6833    6835
    6834    6833    6836    6834    6833    6837    6835    6833    6836
    6835    6833    6837    6836    6833    6837    6837    6838    6839
    6837    6838    6840    6837    6838    6841    6837    6847    6844
    6837    6847    6848    6838    6837    6847    6838    6841    6842
    6838    6841    6843    6838    6841    6844    6839    6838    6840
    6839    6838    6841    6840    6838    6841    6841    6844    6845
    6841    6844    6846    6841    6844    6847    6842    6841    6843
    6842    6841    6844    6843    6841    6844    6844    6847    6848
    6845    6844    6846    6845    6844    6847    6846    6844    6847
    6849    6853    6854    6849    6853    6863    6850    6849    6851
    6850    6849    6852    6850    6849    6853    6851    6849    6852
    6851    6849    6853    6852    6849    6853    6853    6854    6855
    6853    6854    6856    6853    6854    6857    6853    6863    6860
    6853    6863    6864    6854    6853    6863    6854    6857    6858
    6854    6857    6859    6854    6857    6860    6855    6854    6856
    6855    6854    6857    6856    6854    6857    6857    6860    6861
    6857    6860    6862    6857    6860    6863    6858    6857    6859
    6858    6857    6860    6859    6857    6860    6860    6863    6864
    6861    6860    6862    6861    6860    6863    6862    6860    6863
    6865    6869    6870    6865    6869    6879    6866    6865    6867
    6866    6865    6868    6866    6865    6869    6867    6865    6868
    6867    6865    6869    6868    6865    6869    6869    6870    6871
    6869    6870    6872    6869    6870    6873    6869    6879    6876
    6869    6879    6880    6870    6869    6879    6870    6873    6874
    6870    6873    6875    6870    6873    6876    6871    6870    6872
    6871    6870    6873    6872    6870    6873    6873    6876    6877
    6873    6876    6878    6873    6876    6879    6874    6873    6875
    6874    6873    6876    6875    6873    6876    6876    6879    6880
    6877    6876    6878    6877    6876    6879    6878    6876    6879
    6881    6885    6886    6881    6885    6895    6882    6881    6883
    6882    6881    6884    6882    6881    6885    6883    6881    6884
    6883    6881    6885    6884    6881    6885    6885    6886    6887
    6885    6886    6888    6885    6886    6889    6885    6895    6892
    6885    6895    6896    6886    6885    6895    6886    6889    6890
    6886    6889    6891    6886    6889    6892    6887    6886    6888
    6887    6886    6889    6888    6886    6889    6889    6892    6893
    6889    6892    6894    6889    6892    6895    6890    6889    6891
    6890    6889    6892    6891    6889    6892    6892    6895    6896
    6893    6892    6894    6893    6892    6895    6894    6892    6895
    6897    6901    6902    6897    6901    6911    6898    6897    6899
    6898    6897    6900    6898    6897    6901    6899    6897    6900
    6899    6897    6901    6900    6897    6901    6901    6902    6903
    6901    6902    6904    6901    6902    6905    6901    6911    6908
    6901    6911    6912    6902    6901    6911    6902    6905    6906
    6902    6905    6907    6902    6905    6908    6903    6902    6904
    6903    6902    6905    6904    6902    6905    6905    6908    6909
    6905    6908    6910    6905    6908    6911    6906    6905    6907
    6906    6905    6908    6907    6905    6908    6908    6911    6912
    6909    6908    6910    6909    6908    6911    6910    6908    6911
    6913    6917    6918    6913    6917    6927    6914    6913    6915
    6914    6913    6916    6914    6913    6917    6915    6913    6916
    6915    6913    6917    6916    6913    6917    6917    6918    6919
    6917    6918    6920    6917    6918    6921    6917    6927    6924
    6917    6927    6928    6918    6917    6927    6918    6921    6922
    6918    6921    6923    6918    6921    6924    6919    6918    6920
    6919    6918    6921    6920    6918    6921    6921    6924    6925
    6921    6924    6926    6921    6924    6927    6922    6921    6923
    6922    6921    6924    6923    6921    6924    6924    6927    6928
    6925    6924    6926    6925    6924    6927    6926    6924    6927
    6929    6933    6934    6929    6933    6943    6930    6929    6931
    6930    6929    6932    6930    6929    6933    6931    6929    6932
    6931    6929    6933    6932    6929    6933    6933    6934    6935
    6933    6934    6936    6933    6934    6937    6933    6943    6940
    6933    6943    6944    6934    6933    6943    6934    6937    6938
    6934    6937    6939    6934    6937    6940    6935    6934    6936
    6935    6934    6937    6936    6934    6937    6937    6940    6941
    6937    6940    6942    6937    6940    6943    6938    6937    6939
    6938    6937    6940    6939    6937    6940    6940    6943    6944
    6941    6940    6942    6941    6940    6943    6942    6940    6943
    6945    6949    6950    6945    6949    6959    6946    6945    6947
    6946    6945    6948    6946    6945    6949    6947    6945    6948
    6947    6945    6949    6948    6945    6949    6949    6950    6951
    6949    6950    6952    6949    6950    6953    6949    6959    6956
    6949    6959    6960    6950    6949    6959    6950    6953    6954
    6950    6953    6955    6950    6953    6956    6951    6950    6952
    6951    6950    6953    6952    6950    6953    6953    6956    6957
    6953    6956    6958    6953    6956    6959    6954    6953    6955
    6954    6953    6956    6955    6953    6956    6956    6959    6960
    6957    6956    6958    6957    6956    6959    6958    6956    6959
    6961    6965    6966    6961    6965    6975    6962    6961    6963
    6962    6961    6964    6962    6961    6965    6963    6961    6964
    6963    6961    6965    6964    6961    6965    6965    6966    6967
    6965    6966    6968    6965    6966    6969    6965    6975    6972
    6965    6975    6976    6966    6965    6975    6966    6969    6970
    6966    6969    6971    6966    6969    6972    6967    6966    6968
    6967    6966    6969    6968    6966    6969    6969    6972    6973
    6969    6972    6974    6969    6972    6975    6970    6969    6971
    6970    6969    6972    6971    6969    6972    6972    6975    6976
    6973    6972    6974    6973    6972    6975    6974    6972    6975
    6977    6981    6982    6977    6981    6991    6978    6977    6979
    6978    6977    6980    6978    6977    6981    6979    6977    6980
    6979    6977    6981    6980    6977    6981    6981    6982    6983
    6981    6982    6984    6981    6982    6985    6981    6991    6988
    6981    6991    6992    6982    6981    6991    6982    6985    6986
    6982    6985    6987    6982    6985    6988    6983    6982    6984
    6983    6982    6985    6984    6982    6985    6985    6988    6989
    6985    6988    6990    6985    6988    6991    6986    6985    6987
    6986    6985    6988    6987    6985    6988    6988    6991    6992
    6989    6988    6990    6989    6988    6991    6990    6988    6991
    6993    6997    6998    6993    6997    7007    6994    6993    6995
    6994    6993    6996    6994    6993    6997    6995    6993    6996
    6995    6993    6997    6996    6993    6997    6997    6998    6999
    6997    6998    7000    6997    6998    7001    6997    7007    7004
    6997    7007    7008    6998    6997    7007    6998    7001    7002
    6998    7001    7003    6998    7001    7004    6999    6998    7000
    6999    6998    7001    7000    6998    7001    7001    7004    7005
    7001    7004    7006    7001    7004    7007    7002    7001    7003
    7002    7001    7004    7003    7001    7004    7004    7007    7008
    7005    7004    7006    7005    7004    7007    7006    7004    7007
    7009    7013    7014    7009    7013    7023    7010    7009    7011
    7010    7009    7012    7010    7009    7013    7011    7009    7012
    7011    7009    7013    7012    7009    7013    7013    7014    7015
    7013    7014    7016    7013    7014    7017    7013    7023    7020
    7013    7023    7024    7014    7013    7023    7014    7017    7018
    7014    7017    7019    7014    7017    7020    7015    7014    7016
    7015    7014    7017    7016    7014    7017    7017    7020    7021
    7017    7020    7022    7017    7020    7023    7018    7017    7019
    7018    7017    7020    7019    7017    7020    7020    7023    7024
    7021    7020    7022    7021    7020    7023    7022    7020    7023
    7025    7029    7030    7025    7029    7039    7026    7025    7027
    7026    7025    7028    7026    7025    7029    7027    7025    7028
    7027    7025    7029    7028    7025    7029    7029    7030    7031
    7029    7030    7032    7029    7030    7033    7029    7039    7036
    7029    7039    7040    7030    7029    7039    7030    7033    7034
    7030    7033    7035    7030    7033    7036    7031    7030    7032
    7031    7030    7033    7032    7030    7033    7033    7036    7037
    7033    7036    7038    7033    7036    7039    7034    7033    7035
    7034    7033    7036    7035    7033    7036    7036    7039    7040
    7037    7036    7038    7037    7036    7039    7038    7036    7039
    7041    7045    7046    7041    7045    7055    7042    7041    7043
    7042    7041    7044    7042    7041    7045    7043    7041    7044
    7043    7041    7045    7044    7041    7045    7045    7046    7047
    7045    7046    7048    7045    7046    7049    7045    7055    7052
    7045    7055    7056    7046    7045    7055    7046    7049    7050
    7046    7049    7051    7046    7049    7052    7047    7046    7048
    7047    7046    7049    7048    7046    7049    7049    7052    7053
    7049    7052    7054    7049    7052    7055    7050    7049    7051
    7050    7049    7052    7051    7049    7052    7052    7055    7056
    7053    7052    7054    7053    7052    7055    7054    7052    7055
    7057    7061    7062    7057    7061    7071    7058    7057    7059
    7058    7057    7060    7058    7057    7061    7059    7057    7060
    7059    7057    7061    7060    7057    7061    7061    7062    7063
    7061    7062    7064    7061    7062    7065    7061    7071    7068
    7061    7071    7072    7062    7061    7071    7062    7065    7066
    7062    7065    7067    7062    7065    7068    7063    7062    7064
    7063    7062    7065    7064    7062    7065    7065    7068    7069
    7065    7068    7070    7065    7068    7071    7066    7065    7067
    7066    7065    7068    7067    7065    7068    7068    7071    7072
    7069    7068    7070    7069    7068    7071    7070    7068    7071
    7073    7077    7078    7073    7077    7087    7074    7073    7075
    7074    7073    7076    7074    7073    7077    7075    7073    7076
    7075    7073    7077    7076    7073    7077    7077    7078    7079
    7077    7078    7080    7077    7078    7081    7077    7087    7084
    7077    7087    7088    7078    7077    7087    7078    7081    7082
    7078    7081    7083    7078    7081    7084    7079    7078    7080
    7079    7078    7081    7080    7078    7081    7081    7084    7085
    7081    7084    7086    7081    7084    7087    7082    7081    7083
    7082    7081    7084    7083    7081    7084    7084    7087    7088
    7085    7084    7086    7085    7084    7087    7086    7084    7087
    7089    7093    7094    7089    7093    7103    7090    7089    7091
    7090    7089    7092    7090    7089    7093    7091    7089    7092
    7091    7089    7093    7092    7089    7093    7093    7094    7095
    7093    7094    7096    7093    7094    7097    7093    7103    7100
    7093    7103    7104    7094    7093    7103    7094    7097    7098
    7094    7097    7099    7094    7097    7100    7095    7094    7096
    7095    7094    7097    7096    7094    7097    7097    7100    7101
    7097    7100    7102    7097    7100    7103    7098    7097    7099
    7098    7097    7100    7099    7097    7100    7100    7103    7104
    7101    7100    7102    7101    7100    7103    7102    7100    7103
    7105    7109    7110    7105    7109    7119    7106    7105    7107
    7106    7105    7108    7106    7105    7109    7107    7105    7108
    7107    7105    7109    7108    7105    7109    7109    7110    7111
    7109    7110    7112    7109    7110    7113    7109    7119    7116
    7109    7119    7120    7110    7109    7119    7110    7113    7114
    7110    7113    7115    7110    7113    7116    7111    7110    7112
    7111    7110    7113    7112    7110    7113    7113    7116    7117
    7113    7116    7118    7113    7116    7119    7114    7113    7115
    7114    7113    7116    7115    7113    7116    7116    7119    7120
    7117    7116    7118    7117    7116    7119    7118    7116    7119
    7121    7125    7126    7121    7125    7135    7122    7121    7123
    7122    7121    7124    7122    7121    7125    7123    7121    7124
    7123    7121    7125    7124    7121    7125    7125    7126    7127
    7125    7126    7128    7125    7126    7129    7125    7135    7132
    7125    7135    7136    7126    7125    7135    7126    7129    7130
    7126    7129    7131    7126    7129    7132    7127    7126    7128
    7127    7126    7129    7128    7126    7129    7129    7132    7133
    7129    7132    7134    7129    7132    7135    7130    7129    7131
    7130    7129    7132    7131    7129    7132    7132    7135    7136
    7133    7132    7134    7133    7132    7135    7134    7132    7135
    7137    7141    7142    7137    7141    7151    7138    7137    7139
    7138    7137    7140    7138    7137    7141    7139    7137    7140
    7139    7137    7141    7140    7137    7141    7141    7142    7143
    7141    7142    7144    7141    7142    7145    7141    7151    7148
    7141    7151    7152    7142    7141    7151    7142    7145    7146
    7142    7145    7147    7142    7145    7148    7143    7142    7144
    7143    7142    7145    7144    7142    7145    7145    7148    7149
    7145    7148    7150    7145    7148    7151    7146    7145    7147
    7146    7145    7148    7147    7145    7148    7148    7151    7152
    7149    7148    7150    7149    7148    7151    7150    7148    7151
    7153    7157    7158    7153    7157    7167    7154    7153    7155
    7154    7153    7156    7154    7153    7157    7155    7153    7156
    7155    7153    7157    7156    7153    7157    7157    7158    7159
    7157    7158    7160    7157    7158    7161    7157    7167    7164
    7157    7167    7168    7158    7157    7167    7158    7161    7162
    7158    7161    7163    7158    7161    7164    7159    7158    7160
    7159    7158    7161    7160    7158    7161    7161    7164    7165
    7161    7164    7166    7161    7164    7167    7162    7161    7163
    7162    7161    7164    7163    7161    7164    7164    7167    7168
    7165    7164    7166    7165    7164    7167    7166    7164    7167
    7169    7173    7174    7169    7173    7183    7170    7169    7171
    7170    7169    7172    7170    7169    7173    7171    7169    7172
    7171    7169    7173    7172    7169    7173    7173    7174    7175
    7173    7174    7176    7173    7174    7177    7173    7183    7180
    7173    7183    7184    7174    7173    7183    7174    7177    7178
    7174    7177    7179    7174    7177    7180    7175    7174    7176
    7175    7174    7177    7176    7174    7177    7177    7180    7181
    7177    7180    7182    7177    7180    7183    7178    7177    7179
    7178    7177    7180    7179    7177    7180    7180    7183    7184
    7181    7180    7182    7181    7180    7183    7182    7180    7183
    7185    7189    7190    7185    7189    7199    7186    7185    7187
    7186    7185    7188    7186    7185    7189    7187    7185    7188
    7187    7185    7189    7188    7185    7189    7189    7190    7191
    7189    7190    7192    7189    7190    7193    7189    7199    7196
    7189    7199    7200    7190    7189    7199    7190    7193    7194
    7190    7193    7195    7190    7193    7196    7191    7190    7192
    7191    7190    7193    7192    7190    7193    7193    7196    7197
    7193    7196    7198    7193    7196    7199    7194    7193    7195
    7194    7193    7196    7195    7193    7196    7196    7199    7200
    7197    7196    7198    7197    7196    7199    7198    7196    7199
    7201    7205    7206    7201    7205    7215    7202    7201    7203
    7202    7201    7204    7202    7201    7205    7203    7201    7204
    7203    7201    7205    7204    7201    7205    7205    7206    7207
    7205    7206    7208    7205    7206    7209    7205    7215    7212
    7205    7215    7216    7206    7205    7215    7206    7209    7210
    7206    7209    7211    7206    7209    7212    7207    7206    7208
    7207    7206    7209    7208    7206    7209    7209    7212    7213
    7209    7212    7214    7209    7212    7215    7210    7209    7211
    7210    7209    7212    7211    7209    7212    7212    7215    7216
    7213    7212    7214    7213    7212    7215    7214    7212    7215
    7217    7221    7222    7217    7221    7231    7218    7217    7219
    7218    7217    7220    7218    7217    7221    7219    7217    7220
    7219    7217    7221    7220    7217    7221    7221    7222    7223
    7221    7222    7224    7221    7222    7225    7221    7231    7228
    7221    7231    7232    7222    7221    7231    7222    7225    7226
    7222    7225    7227    7222    7225    7228    7223    7222    7224
    7223    7222    7225    7224    7222    7225    7225    7228    7229
    7225    7228    7230    7225    7228    7231    7226    7225    7227
    7226    7225    7228    7227    7225    7228    7228    7231    7232
    7229    7228    7230    7229    7228    7231    7230    7228    7231
    7233    7237    7238    7233    7237    7247    7234    7233    7235
    7234    7233    7236    7234    7233    7237    7235    7233    7236
    7235    7233    7237    7236    7233    7237    7237    7238    7239
    7237    7238    7240    7237    7238    7241    7237    7247    7244
    7237    7247    7248    7238    7237    7247    7238    7241    7242
    7238    7241    7243    7238    7241    7244    7239    7238    7240
    7239    7238    7241    7240    7238    7241    7241    7244    7245
    7241    7244    7246    7241    7244    7247    7242    7241    7243
    7242    7241    7244    7243    7241    7244    7244    7247    7248
    7245    7244    7246    7245    7244    7247    7246    7244    7247
    7249    7253    7254    7249    7253    7263    7250    7249    7251
    7250    7249    7252    7250    7249    7253    7251    7249    7252
    7251    7249    7253    7252    7249    7253    7253    7254    7255
    7253    7254    7256    7253    7254    7257    7253    7263    7260
    7253    7263    7264    7254    7253    7263    7254    7257    7258
    7254    7257    7259    7254    7257    7260    7255    7254    7256
    7255    7254    7257    7256    7254    7257    7257    7260    7261
    7257    7260    7262    7257    7260    7263    7258    7257    7259
    7258    7257    7260    7259    7257    7260    7260    7263    7264
    7261    7260    7262    7261    7260    7263    7262    7260    7263
    7265    7269    7270    7265    7269    7279    7266    7265    7267
    7266    7265    7268    7266    7265    7269    7267    7265    7268
    7267    7265    7269    7268    7265    7269    7269    7270    7271
    7269    7270    7272    7269    7270    7273    7269    7279    7276
    7269    7279    7280    7270    7269    7279    7270    7273    7274
    7270    7273    7275    7270    7273    7276    7271    7270    7272
    7271    7270    7273    7272    7270    7273    7273    7276    7277
    7273    7276    7278    7273    7276    7279    7274    7273    7275
    7274    7273    7276    7275    7273    7276    7276    7279    7280
    7277    7276    7278    7277    7276    7279    7278    7276    7279
    7281    7285    7286    7281    7285    7295    7282    7281    7283
    7282    7281    7284    7282    7281    7285    7283    7281    7284
    7283    7281    7285    7284    7281    7285    7285    7286    7287
    7285    7286    7288    7285    7286    7289    7285    7295    7292
    7285    7295    7296    7286    7285    7295    7286    7289    7290
    7286    7289    7291    7286    7289    7292    7287    7286    7288
    7287    7286    7289    7288    7286    7289    7289    7292    7293
    7289    7292    7294    7289    7292    7295    7290    7289    7291
    7290    7289    7292    7291    7289    7292    7292    7295    7296
    7293    7292    7294    7293    7292    7295    7294    7292    7295
    7297    7301    7302    7297    7301    7311    7298    7297    7299
    7298    7297    7300    7298    7297    7301    7299    7297    7300
    7299    7297    7301    7300    7297    7301    7301    7302    7303
    7301    7302    7304    7301    7302    7305    7301    7311    7308
    7301    7311    7312    7302    7301    7311    7302    7305    7306
    7302    7305    7307    7302    7305    7308    7303    7302    7304
    7303    7302    7305    7304    7302    7305    7305    7308    7309
    7305    7308    7310    7305    7308    7311    7306    7305    7307
    7306    7305    7308    7307    7305    7308    7308    7311    7312
    7309    7308    7310    7309    7308    7311    7310    7308    7311
    7313    7317    7318    7313    7317    7327    7314    7313    7315
    7314    7313    7316    7314    7313    7317    7315    7313    7316
    7315    7313    7317    7316    7313    7317    7317    7318    7319
    7317    7318    7320    7317    7318    7321    7317    7327    7324
    7317    7327    7328    7318    7317    7327    7318    7321    7322
    7318    7321    7323    7318    7321    7324    7319    7318    7320
    7319    7318    7321    7320    7318    7321    7321    7324    7325
    7321    7324    7326    7321    7324    7327    7322    7321    7323
    7322    7321    7324    7323    7321    7324    7324    7327    7328
    7325    7324    7326    7325    7324    7327    7326    7324    7327
    7329    7333    7334    7329    7333    7343    7330    7329    7331
    7330    7329    7332    7330    7329    7333    7331    7329    7332
    7331    7329    7333    7332    7329    7333    7333    7334    7335
    7333    7334    7336    7333    7334    7337    7333    7343    7340
    7333    7343    7344    7334    7333    7343    7334    7337    7338
    7334    7337    7339    7334    7337    7340    7335    7334    7336
    7335    7334    7337    7336    7334    7337    7337    7340    7341
    7337    7340    7342    7337    7340    7343    7338    7337    7339
    7338    7337    7340    7339    7337    7340    7340    7343    7344
    7341    7340    7342    7341    7340    7343    7342    7340    7343
    7345    7349    7350    7345    7349    7359    7346    7345    7347
    7346    7345    7348    7346    7345    7349    7347    7345    7348
    7347    7345    7349    7348    7345    7349    7349    7350    7351
    7349    7350    7352    7349    7350    7353    7349    7359    7356
    7349    7359    7360    7350    7349    7359    7350    7353    7354
    7350    7353    7355    7350    7353    7356    7351    7350    7352
    7351    7350    7353    7352    7350    7353    7353    7356    7357
    7353    7356    7358    7353    7356    7359    7354    7353    7355
    7354    7353    7356    7355    7353    7356    7356    7359    7360
    7357    7356    7358    7357    7356    7359    7358    7356    7359
    7361    7365    7366    7361    7365    7375    7362    7361    7363
    7362    7361    7364    7362    7361    7365    7363    7361    7364
    7363    7361    7365    7364    7361    7365    7365    7366    7367
    7365    7366    7368    7365    7366    7369    7365    7375    7372
    7365    7375    7376    7366    7365    7375    7366    7369    7370
    7366    7369    7371    7366    7369    7372    7367    7366    7368
    7367    7366    7369    7368    7366    7369    7369    7372    7373
    7369    7372    7374    7369    7372    7375    7370    7369    7371
    7370    7369    7372    7371    7369    7372    7372    7375    7376
    7373    7372    7374    7373    7372    7375    7374    7372    7375
    7377    7381    7382    7377    7381    7391    7378    7377    7379
    7378    7377    7380    7378    7377    7381    7379    7377    7380
    7379    7377    7381    7380    7377    7381    7381    7382    7383
    7381    7382    7384    7381    7382    7385    7381    7391    7388
    7381    7391    7392    7382    7381    7391    7382    7385    7386
    7382    7385    7387    7382    7385    7388    7383    7382    7384
    7383    7382    7385    7384    7382    7385    7385    7388    7389
    7385    7388    7390    7385    7388    7391    7386    7385    7387
    7386    7385    7388    7387    7385    7388    7388    7391    7392
    7389    7388    7390    7389    7388    7391    7390    7388    7391
    7393    7397    7398    7393    7397    7407    7394    7393    7395
    7394    7393    7396    7394    7393    7397    7395    7393    7396
    7395    7393    7397    7396    7393    7397    7397    7398    7399
    7397    7398    7400    7397    7398    7401    7397    7407    7404
    7397    7407    7408    7398    7397    7407    7398    7401    7402
    7398    7401    7403    7398    7401    7404    7399    7398    7400
    7399    7398    7401    7400    7398    7401    7401    7404    7405
    7401    7404    7406    7401    7404    7407    7402    7401    7403
    7402    7401    7404    7403    7401    7404    7404    7407    7408
    7405    7404    7406    7405    7404    7407    7406    7404    7407
    7409    7413    7414    7409    7413    7423    7410    7409    7411
    7410    7409    7412    7410    7409    7413    7411    7409    7412
    7411    7409    7413    7412    7409    7413    7413    7414    7415
    7413    7414    7416    7413    7414    7417    7413    7423    7420
    7413    7423    7424    7414    7413    7423    7414    7417    7418
    7414    7417    7419    7414    7417    7420    7415    7414    7416
    7415    7414    7417    7416    7414    7417    7417    7420    7421
    7417    7420    7422    7417    7420    7423    7418    7417    7419
    7418    7417    7420    7419    7417    7420    7420    7423    7424
    7421    7420    7422    7421    7420    7423    7422    7420    7423
    7425    7429    7430    7425    7429    7439    7426    7425    7427
    7426    7425    7428    7426    7425    7429    7427    7425    7428
    7427    7425    7429    7428    7425    7429    7429    7430    7431
    7429    7430    7432    7429    7430    7433    7429    7439    7436
    7429    7439    7440    7430    7429    7439    7430    7433    7434
    7430    7433    7435    7430    7433    7436    7431    7430    7432
    7431    7430    7433    7432    7430    7433    7433    7436    7437
    7433    7436    7438    7433    7436    7439    7434    7433    7435
    7434    7433    7436    7435    7433    7436    7436    7439    7440
    7437    7436    7438    7437    7436    7439    7438    7436    7439
    7441    7445    7446    7441    7445    7455    7442    7441    7443
    7442    7441    7444    7442    7441    7445    7443    7441    7444
    7443    7441    7445    7444    7441    7445    7445    7446    7447
    7445    7446    7448    7445    7446    7449    7445    7455    7452
    7445    7455    7456    7446    7445    7455    7446    7449    7450
    7446    7449    7451    7446    7449    7452    7447    7446    7448
    7447    7446    7449    7448    7446    7449    7449    7452    7453
    7449    7452    7454    7449    7452    7455    7450    7449    7451
    7450    7449    7452    7451    7449    7452    7452    7455    7456
    7453    7452    7454    7453    7452    7455    7454    7452    7455
    7457    7461    7462    7457    7461    7471    7458    7457    7459
    7458    7457    7460    7458    7457    7461    7459    7457    7460
    7459    7457    7461    7460    7457    7461    7461    7462    7463
    7461    7462    7464    7461    7462    7465    7461    7471    7468
    7461    7471    7472    7462    7461    7471    7462    7465    7466
    7462    7465    7467    7462    7465    7468    7463    7462    7464
    7463    7462    7465    7464    7462    7465    7465    7468    7469
    7465    7468    7470    7465    7468    7471    7466    7465    7467
    7466    7465    7468    7467    7465    7468    7468    7471    7472
    7469    7468    7470    7469    7468    7471    7470    7468    7471
    7473    7477    7478    7473    7477    7487    7474    7473    7475
    7474    7473    7476    7474    7473    7477    7475    7473    7476
    7475    7473    7477    7476    7473    7477    7477    7478    7479
    7477    7478    7480    7477    7478    7481    7477    7487    7484
    7477    7487    7488    7478    7477    7487    7478    7481    7482
    7478    7481    7483    7478    7481    7484    7479    7478    7480
    7479    7478    7481    7480    7478    7481    7481    7484    7485
    7481    7484    7486    7481    7484    7487    7482    7481    7483
    7482    7481    7484    7483    7481    7484    7484    7487    7488
    7485    7484    7486    7485    7484    7487    7486    7484    7487
    7489    7493    7494    7489    7493    7503    7490    7489    7491
    7490    7489    7492    7490    7489    7493    7491    7489    7492
    7491    7489    7493    7492    7489    7493    7493    7494    7495
    7493    7494    7496    7493    7494    7497    7493    7503    7500
    7493    7503    7504    7494    7493    7503    7494    7497    7498
    7494    7497    7499    7494    7497    7500    7495    7494    7496
    7495    7494    7497    7496    7494    7497    7497    7500    7501
    7497    7500    7502    7497    7500    7503    7498    7497    7499
    7498    7497    7500    7499    7497    7500    7500    7503    7504
    7501    7500    7502    7501    7500    7503    7502    7500    7503
    7505    7509    7510    7505    7509    7519    7506    7505    7507
    7506    7505    7508    7506    7505    7509    7507    7505    7508
    7507    7505    7509    7508    7505    7509    7509    7510    7511
    7509    7510    7512    7509    7510    7513    7509    7519    7516
    7509    7519    7520    7510    7509    7519    7510    7513    7514
    7510    7513    7515    7510    7513    7516    7511    7510    7512
    7511    7510    7513    7512    7510    7513    7513    7516    7517
    7513    7516    7518    7513    7516    7519    7514    7513    7515
    7514    7513    7516    7515    7513    7516    7516    7519    7520
    7517    7516    7518    7517    7516    7519    7518    7516    7519
    7521    7525    7526    7521    7525    7535    7522    7521    7523
    7522    7521    7524    7522    7521    7525    7523    7521    7524
    7523    7521    7525    7524    7521    7525    7525    7526    7527
    7525    7526    7528    7525    7526    7529    7525    7535    7532
    7525    7535    7536    7526    7525    7535    7526    7529    7530
    7526    7529    7531    7526    7529    7532    7527    7526    7528
    7527    7526    7529    7528    7526    7529    7529    7532    7533
    7529    7532    7534    7529    7532    7535    7530    7529    7531
    7530    7529    7532    7531    7529    7532    7532    7535    7536
    7533    7532    7534    7533    7532    7535    7534    7532    7535
    7537    7541    7542    7537    7541    7551    7538    7537    7539
    7538    7537    7540    7538    7537    7541    7539    7537    7540
    7539    7537    7541    7540    7537    7541    7541    7542    7543
    7541    7542    7544    7541    7542    7545    7541    7551    7548
    7541    7551    7552    7542    7541    7551    7542    7545    7546
    7542    7545    7547    7542    7545    7548    7543    7542    7544
    7543    7542    7545    7544    7542    7545    7545    7548    7549
    7545    7548    7550    7545    7548    7551    7546    7545    7547
    7546    7545    7548    7547    7545    7548    7548    7551    7552
    7549    7548    7550    7549    7548    7551    7550    7548    7551
    7553    7557    7558    7553    7557    7567    7554    7553    7555
    7554    7553    7556    7554    7553    7557    7555    7553    7556
    7555    7553    7557    7556    7553    7557    7557    7558    7559
    7557    7558    7560    7557    7558    7561    7557    7567    7564
    7557    7567    7568    7558    7557    7567    7558    7561    7562
    7558    7561    7563    7558    7561    7564    7559    7558    7560
    7559    7558    7561    7560    7558    7561    7561    7564    7565
    7561    7564    7566    7561    7564    7567    7562    7561    7563
    7562    7561    7564    7563    7561    7564    7564    7567    7568
    7565    7564    7566    7565    7564    7567    7566    7564    7567
    7569    7573    7574    7569    7573    7583    7570    7569    7571
    7570    7569    7572    7570    7569    7573    7571    7569    7572
    7571    7569    7573    7572    7569    7573    7573    7574    7575
    7573    7574    7576    7573    7574    7577    7573    7583    7580
    7573    7583    7584    7574    7573    7583    7574    7577    7578
    7574    7577    7579    7574    7577    7580    7575    7574    7576
    7575    7574    7577    7576    7574    7577    7577    7580    7581
    7577    7580    7582    7577    7580    7583    7578    7577    7579
    7578    7577    7580    7579    7577    7580    7580    7583    7584
    7581    7580    7582    7581    7580    7583    7582    7580    7583
    7585    7589    7590    7585    7589    7599    7586    7585    7587
    7586    7585    7588    7586    7585    7589    7587    7585    7588
    7587    7585    7589    7588    7585    7589    7589    7590    7591
    7589    7590    7592    7589    7590    7593    7589    7599    7596
    7589    7599    7600    7590    7589    7599    7590    7593    7594
    7590    7593    7595    7590    7593    7596    7591    7590    7592
    7591    7590    7593    7592    7590    7593    7593    7596    7597
    7593    7596    7598    7593    7596    7599    7594    7593    7595
    7594    7593    7596    7595    7593    7596    7596    7599    7600
    7597    7596    7598    7597    7596    7599    7598    7596    7599
    7601    7605    7606    7601    7605    7615    7602    7601    7603
    7602    7601    7604    7602    7601    7605    7603    7601    7604
    7603    7601    7605    7604    7601    7605    7605    7606    7607
    7605    7606    7608    7605    7606    7609    7605    7615    7612
    7605    7615    7616    7606    7605    7615    7606    7609    7610
    7606    7609    7611    7606    7609    7612    7607    7606    7608
    7607    7606    7609    7608    7606    7609    7609    7612    7613
    7609    7612    7614    7609    7612    7615    7610    7609    7611
    7610    7609    7612    7611    7609    7612    7612    7615    7616
    7613    7612    7614    7613    7612    7615    7614    7612    7615
    7617    7621    7622    7617    7621    7631    7618    7617    7619
    7618    7617    7620    7618    7617    7621    7619    7617    7620
    7619    7617    7621    7620    7617    7621    7621    7622    7623
    7621    7622    7624    7621    7622    7625    7621    7631    7628
    7621    7631    7632    7622    7621    7631    7622    7625    7626
    7622    7625    7627    7622    7625    7628    7623    7622    7624
    7623    7622    7625    7624    7622    7625    7625    7628    7629
    7625    7628    7630    7625    7628    7631    7626    7625    7627
    7626    7625    7628    7627    7625    7628    7628    7631    7632
    7629    7628    7630    7629    7628    7631    7630    7628    7631
    7633    7637    7638    7633    7637    7647    7634    7633    7635
    7634    7633    7636    7634    7633    7637    7635    7633    7636
    7635    7633    7637    7636    7633    7637    7637    7638    7639
    7637    7638    7640    7637    7638    7641    7637    7647    7644
    7637    7647    7648    7638    7637    7647    7638    7641    7642
    7638    7641    7643    7638    7641    7644    7639    7638    7640
    7639    7638    7641    7640    7638    7641    7641    7644    7645
    7641    7644    7646    7641    7644    7647    7642    7641    7643
    7642    7641    7644    7643    7641    7644    7644    7647    7648
    7645    7644    7646    7645    7644    7647    7646    7644    7647
    7649    7653    7654    7649    7653    7663    7650    7649    7651
    7650    7649    7652    7650    7649    7653    7651    7649    7652
    7651    7649    7653    7652    7649    7653    7653    7654    7655
    7653    7654    7656    7653    7654    7657    7653    7663    7660
    7653    7663    7664    7654    7653    7663    7654    7657    7658
    7654    7657    7659    7654    7657    7660    7655    7654    7656
    7655    7654    7657    7656    7654    7657    7657    7660    7661
    7657    7660    7662    7657    7660    7663    7658    7657    7659
    7658    7657    7660    7659    7657    7660    7660    7663    7664
    7661    7660    7662    7661    7660    7663    7662    7660    7663
    7665    7669    7670    7665    7669    7679    7666    7665    7667
    7666    7665    7668    7666    7665    7669    7667    7665    7668
    7667    7665    7669    7668    7665    7669    7669    7670    7671
    7669    7670    7672    7669    7670    7673    7669    7679    7676
    7669    7679    7680    7670    7669    7679    7670    7673    7674
    7670    7673    7675    7670    7673    7676    7671    7670    7672
    7671    7670    7673    7672    7670    7673    7673    7676    7677
    7673    7676    7678    7673    7676    7679    7674    7673    7675
    7674    7673    7676    7675    7673    7676    7676    7679    7680
    7677    7676    7678    7677    7676    7679    7678    7676    7679
    7681    7685    7686    7681    7685    7695    7682    7681    7683
    7682    7681    7684    7682    7681    7685    7683    7681    7684
    7683    7681    7685    7684    7681    7685    7685    7686    7687
    7685    7686    7688    7685    7686    7689    7685    7695    7692
    7685    7695    7696    7686    7685    7695    7686    7689    7690
    7686    7689    7691    7686    7689    7692    7687    7686    7688
    7687    7686    7689    7688    7686    7689    7689    7692    7693
    7689    7692    7694    7689    7692    7695    7690    7689    7691
    7690    7689    7692    7691    7689    7692    7692    7695    7696
    7693    7692    7694    7693    7692    7695    7694    7692    7695
    7697    7701    7702    7697    7701    7711    7698    7697    7699
    7698    7697    7700    7698    7697    7701    7699    7697    7700
    7699    7697    7701    7700    7697    7701    7701    7702    7703
    7701    7702    7704    7701    7702    7705    7701    7711    7708
    7701    7711    7712    7702    7701    7711    7702    7705    7706
    7702    7705    7707    7702    7705    7708    7703    7702    7704
    7703    7702    7705    7704    7702    7705    7705    7708    7709
    7705    7708    7710    7705    7708    7711    7706    7705    7707
    7706    7705    7708    7707    7705    7708    7708    7711    7712
    7709    7708    7710    7709    7708    7711    7710    7708    7711
    7713    7717    7718    7713    7717    7727    7714    7713    7715
    7714    7713    7716    7714    7713    7717    7715    7713    7716
    7715    7713    7717    7716    7713    7717    7717    7718    7719
    7717    7718    7720    7717    7718    7721    7717    7727    7724
    7717    7727    7728    7718    7717    7727    7718    7721    7722
    7718    7721    7723    7718    7721    7724    7719    7718    7720
    7719    7718    7721    7720    7718    7721    7721    7724    7725
    7721    7724    7726    7721    7724    7727    7722    7721    7723
    7722    7721    7724    7723    7721    7724    7724    7727    7728
    7725    7724    7726    7725    7724    7727    7726    7724    7727
    7729    7733    7734    7729    7733    7743    7730    7729    7731
    7730    7729    7732    7730    7729    7733    7731    7729    7732
    7731    7729    7733    7732    7729    7733    7733    7734    7735
    7733    7734    7736    7733    7734    7737    7733    7743    7740
    7733    7743    7744    7734    7733    7743    7734    7737    7738
    7734    7737    7739    7734    7737    7740    7735    7734    7736
    7735    7734    7737    7736    7734    7737    7737    7740    7741
    7737    7740    7742    7737    7740    7743    7738    7737    7739
    7738    7737    7740    7739    7737    7740    7740    7743    7744
    7741    7740    7742    7741    7740    7743    7742    7740    7743
    7745    7749    7750    7745    7749    7759    7746    7745    7747
    7746    7745    7748    7746    7745    7749    7747    7745    7748
    7747    7745    7749    7748    7745    7749    7749    7750    7751
    7749    7750    7752    7749    7750    7753    7749    7759    7756
    7749    7759    7760    7750    7749    7759    7750    7753    7754
    7750    7753    7755    7750    7753    7756    7751    7750    7752
    7751    7750    7753    7752    7750    7753    7753    7756    7757
    7753    7756    7758    7753    7756    7759    7754    7753    7755
    7754    7753    7756    7755    7753    7756    7756    7759    7760
    7757    7756    7758    7757    7756    7759    7758    7756    7759
    7761    7765    7766    7761    7765    7775    7762    7761    7763
    7762    7761    7764    7762    7761    7765    7763    7761    7764
    7763    7761    7765    7764    7761    7765    7765    7766    7767
    7765    7766    7768    7765    7766    7769    7765    7775    7772
    7765    7775    7776    7766    7765    7775    7766    7769    7770
    7766    7769    7771    7766    7769    7772    7767    7766    7768
    7767    7766    7769    7768    7766    7769    7769    7772    7773
    7769    7772    7774    7769    7772    7775    7770    7769    7771
    7770    7769    7772    7771    7769    7772    7772    7775    7776
    7773    7772    7774    7773    7772    7775    7774    7772    7775
    7777    7781    7782    7777    7781    7791    7778    7777    7779
    7778    7777    7780    7778    7777    7781    7779    7777    7780
    7779    7777    7781    7780    7777    7781    7781    7782    7783
    7781    7782    7784    7781    7782    7785    7781    7791    7788
    7781    7791    7792    7782    7781    7791    7782    7785    7786
    7782    7785    7787    7782    7785    7788    7783    7782    7784
    7783    7782    7785    7784    7782    7785    7785    7788    7789
    7785    7788    7790    7785    7788    7791    7786    7785    7787
    7786    7785    7788    7787    7785    7788    7788    7791    7792
    7789    7788    7790    7789    7788    7791    7790    7788    7791
    7793    7797    7798    7793    7797    7807    7794    7793    7795
    7794    7793    7796    7794    7793    7797    7795    7793    7796
    7795    7793    7797    7796    7793    7797    7797    7798    7799
    7797    7798    7800    7797    7798    7801    7797    7807    7804
    7797    7807    7808    7798    7797    7807    7798    7801    7802
    7798    7801    7803    7798    7801    7804    7799    7798    7800
    7799    7798    7801    7800    7798    7801    7801    7804    7805
    7801    7804    7806    7801    7804    7807    7802    7801    7803
    7802    7801    7804    7803    7801    7804    7804    7807    7808
    7805    7804    7806    7805    7804    7807    7806    7804    7807
    7809    7813    7814    7809    7813    7823    7810    7809    7811
    7810    7809    7812    7810    7809    7813    7811    7809    7812
    7811    7809    7813    7812    7809    7813    7813    7814    7815
    7813    7814    7816    7813    7814    7817    7813    7823    7820
    7813    7823    7824    7814    7813    7823    7814    7817    7818
    7814    7817    7819    7814    7817    7820    7815    7814    7816
    7815    7814    7817    7816    7814    7817    7817    7820    7821
    7817    7820    7822    7817    7820    7823    7818    7817    7819
    7818    7817    7820    7819    7817    7820    7820    7823    7824
    7821    7820    7822    7821    7820    7823    7822    7820    7823
    7825    7829    7830    7825    7829    7839    7826    7825    7827
    7826    7825    7828    7826    7825    7829    7827    7825    7828
    7827    7825    7829    7828    7825    7829    7829    7830    7831
    7829    7830    7832    7829    7830    7833    7829    7839    7836
    7829    7839    7840    7830    7829    7839    7830    7833    7834
    7830    7833    7835    7830    7833    7836    7831    7830    7832
    7831    7830    7833    7832    7830    7833    7833    7836    7837
    7833    7836    7838    7833    7836    7839    7834    7833    7835
    7834    7833    7836    7835    7833    7836    7836    7839    7840
    7837    7836    7838    7837    7836    7839    7838    7836    7839
    7841    7845    7846    7841    7845    7855    7842    7841    7843
    7842    7841    7844    7842    7841    7845    7843    7841    7844
    7843    7841    7845    7844    7841    7845    7845    7846    7847
    7845    7846    7848    7845    7846    7849    7845    7855    7852
    7845    7855    7856    7846    7845    7855    7846    7849    7850
    7846    7849    7851    7846    7849    7852    7847    7846    7848
    7847    7846    7849    7848    7846    7849    7849    7852    7853
    7849    7852    7854    7849    7852    7855    7850    7849    7851
    7850    7849    7852    7851    7849    7852    7852    7855    7856
    7853    7852    7854    7853    7852    7855    7854    7852    7855
    7857    7861    7862    7857    7861    7871    7858    7857    7859
    7858    7857    7860    7858    7857    7861    7859    7857    7860
    7859    7857    7861    7860    7857    7861    7861    7862    7863
    7861    7862    7864    7861    7862    7865    7861    7871    7868
    7861    7871    7872    7862    7861    7871    7862    7865    7866
    7862    7865    7867    7862    7865    7868    7863    7862    7864
    7863    7862    7865    7864    7862    7865    7865    7868    7869
    7865    7868    7870    7865    7868    7871    7866    7865    7867
    7866    7865    7868    7867    7865    7868    7868    7871    7872
    7869    7868    7870    7869    7868    7871    7870    7868    7871
    7873    7877    7878    7873    7877    7887    7874    7873    7875
    7874    7873    7876    7874    7873    7877    7875    7873    7876
    7875    7873    7877    7876    7873    7877    7877    7878    7879
    7877    7878    7880    7877    7878    7881    7877    7887    7884
    7877    7887    7888    7878    7877    7887    7878    7881    7882
    7878    7881    7883    7878    7881    7884    7879    7878    7880
    7879    7878    7881    7880    7878    7881    7881    7884    7885
    7881    7884    7886    7881    7884    7887    7882    7881    7883
    7882    7881    7884    7883    7881    7884    7884    7887    7888
    7885    7884    7886    7885    7884    7887    7886    7884    7887
    7889    7893    7894    7889    7893    7903    7890    7889    7891
    7890    7889    7892    7890    7889    7893    7891    7889    7892
    7891    7889    7893    7892    7889    7893    7893    7894    7895
    7893    7894    7896    7893    7894    7897    7893    7903    7900
    7893    7903    7904    7894    7893    7903    7894    7897    7898
    7894    7897    7899    7894    7897    7900    7895    7894    7896
    7895    7894    7897    7896    7894    7897    7897    7900    7901
    7897    7900    7902    7897    7900    7903    7898    7897    7899
    7898    7897    7900    7899    7897    7900    7900    7903    7904
    7901    7900    7902    7901    7900    7903    7902    7900    7903
    7905    7909    7910    7905    7909    7919    7906    7905    7907
    7906    7905    7908    7906    7905    7909    7907    7905    7908
    7907    7905    7909    7908    7905    7909    7909    7910    7911
    7909    7910    7912    7909    7910    7913    7909    7919    7916
    7909    7919    7920    7910    7909    7919    7910    7913    7914
    7910    7913    7915    7910    7913    7916    7911    7910    7912
    7911    7910    7913    7912    7910    7913    7913    7916    7917
    7913    7916    7918    7913    7916    7919    7914    7913    7915
    7914    7913    7916    7915    7913    7916    7916    7919    7920
    7917    7916    7918    7917    7916    7919    7918    7916    7919
    7921    7925    7926    7921    7925    7935    7922    7921    7923
    7922    7921    7924    7922    7921    7925    7923    7921    7924
    7923    7921    7925    7924    7921    7925    7925    7926    7927
    7925    7926    7928    7925    7926    7929    7925    7935    7932
    7925    7935    7936    7926    7925    7935    7926    7929    7930
    7926    7929    7931    7926    7929    7932    7927    7926    7928
    7927    7926    7929    7928    7926    7929    7929    7932    7933
    7929    7932    7934    7929    7932    7935    7930    7929    7931
    7930    7929    7932    7931    7929    7932    7932    7935    7936
    7933    7932    7934    7933    7932    7935    7934    7932    7935
    7937    7941    7942    7937    7941    7951    7938    7937    7939
    7938    7937    7940    7938    7937    7941    7939    7937    7940
    7939    7937    7941    7940    7937    7941    7941    7942    7943
    7941    7942    7944    7941    7942    7945    7941    7951    7948
    7941    7951    7952    7942    7941    7951    7942    7945    7946
    7942    7945    7947    7942    7945    7948    7943    7942    7944
    7943    7942    7945    7944    7942    7945    7945    7948    7949
    7945    7948    7950    7945    7948    7951    7946    7945    7947
    7946    7945    7948    7947    7945    7948    7948    7951    7952
    7949    7948    7950    7949    7948    7951    7950    7948    7951
    7953    7957    7958    7953    7957    7967    7954    7953    7955
    7954    7953    7956    7954    7953    7957    7955    7953    7956
    7955    7953    7957    7956    7953    7957    7957    7958    7959
    7957    7958    7960    7957    7958    7961    7957    7967    7964
    7957    7967    7968    7958    7957    7967    7958    7961    7962
    7958    7961    7963    7958    7961    7964    7959    7958    7960
    7959    7958    7961    7960    7958    7961    7961    7964    7965
    7961    7964    7966    7961    7964    7967    7962    7961    7963
    7962    7961    7964    7963    7961    7964    7964    7967    7968
    7965    7964    7966    7965    7964    7967    7966    7964    7967
    7969    7973    7974    7969    7973    7983    7970    7969    7971
    7970    7969    7972    7970    7969    7973    7971    7969    7972
    7971    7969    7973    7972    7969    7973    7973    7974    7975
    7973    7974    7976    7973    7974    7977    7973    7983    7980
    7973    7983    7984    7974    7973    7983    7974    7977    7978
    7974    7977    7979    7974    7977    7980    7975    7974    7976
    7975    7974    7977    7976    7974    7977    7977    7980    7981
    7977    7980    7982    7977    7980    7983    7978    7977    7979
    7978    7977    7980    7979    7977    7980    7980    7983    7984
    7981    7980    7982    7981    7980    7983    7982    7980    7983
    7985    7989    7990    7985    7989    7999    7986    7985    7987
    7986    7985    7988    7986    7985    7989    7987    7985    7988
    7987    7985    7989    7988    7985    7989    7989    7990    7991
    7989    7990    7992    7989    7990    7993    7989    7999    7996
    7989    7999    8000    7990    7989    7999    7990    7993    7994
    7990    7993    7995    7990    7993    7996    7991    7990    7992
    7991    7990    7993    7992    7990    7993    7993    7996    7997
    7993    7996    7998    7993    7996    7999    7994    7993    7995
    7994    7993    7996    7995    7993    7996    7996    7999    8000
    7997    7996    7998    7997    7996    7999    7998    7996    7999
    8001    8005    8006    8001    8005    8015    8002    8001    8003
    8002    8001    8004    8002    8001    8005    8003    8001    8004
    8003    8001    8005    8004    8001    8005    8005    8006    8007
    8005    8006    8008    8005    8006    8009    8005    8015    8012
    8005    8015    8016    8006    8005    8015    8006    8009    8010
    8006    8009    8011    8006    8009    8012    8007    8006    8008
    8007    8006    8009    8008    8006    8009    8009    8012    8013
    8009    8012    8014    8009    8012    8015    8010    8009    8011
    8010    8009    8012    8011    8009    8012    8012    8015    8016
    8013    8012    8014    8013    8012    8015    8014    8012    8015
    8017    8021    8022    8017    8021    8031    8018    8017    8019
    8018    8017    8020    8018    8017    8021    8019    8017    8020
    8019    8017    8021    8020    8017    8021    8021    8022    8023
    8021    8022    8024    8021    8022    8025    8021    8031    8028
    8021    8031    8032    8022    8021    8031    8022    8025    8026
    8022    8025    8027    8022    8025    8028    8023    8022    8024
    8023    8022    8025    8024    8022    8025    8025    8028    8029
    8025    8028    8030    8025    8028    8031    8026    8025    8027
    8026    8025    8028    8027    8025    8028    8028    8031    8032
    8029    8028    8030    8029    8028    8031    8030    8028    8031
    8033    8037    8038    8033    8037    8047    8034    8033    8035
    8034    8033    8036    8034    8033    8037    8035    8033    8036
    8035    8033    8037    8036    8033    8037    8037    8038    8039
    8037    8038    8040    8037    8038    8041    8037    8047    8044
    8037    8047    8048    8038    8037    8047    8038    8041    8042
    8038    8041    8043    8038    8041    8044    8039    8038    8040
    8039    8038    8041    8040    8038    8041    8041    8044    8045
    8041    8044    8046    8041    8044    8047    8042    8041    8043
    8042    8041    8044    8043    8041    8044    8044    8047    8048
    8045    8044    8046    8045    8044    8047    8046    8044    8047
    8049    8053    8054    8049    8053    8063    8050    8049    8051
    8050    8049    8052    8050    8049    8053    8051    8049    8052
    8051    8049    8053    8052    8049    8053    8053    8054    8055
    8053    8054    8056    8053    8054    8057    8053    8063    8060
    8053    8063    8064    8054    8053    8063    8054    8057    8058
    8054    8057    8059    8054    8057    8060    8055    8054    8056
    8055    8054    8057    8056    8054    8057    8057    8060    8061
    8057    8060    8062    8057    8060    8063    8058    8057    8059
    8058    8057    8060    8059    8057    8060    8060    8063    8064
    8061    8060    8062    8061    8060    8063    8062    8060    8063
    8065    8069    8070    8065    8069    8079    8066    8065    8067
    8066    8065    8068    8066    8065    8069    8067    8065    8068
    8067    8065    8069    8068    8065    8069    8069    8070    8071
    8069    8070    8072    8069    8070    8073    8069    8079    8076
    8069    8079    8080    8070    8069    8079    8070    8073    8074
    8070    8073    8075    8070    8073    8076    8071    8070    8072
    8071    8070    8073    8072    8070    8073    8073    8076    8077
    8073    8076    8078    8073    8076    8079    8074    8073    8075
    8074    8073    8076    8075    8073    8076    8076    8079    8080
    8077    8076    8078    8077    8076    8079    8078    8076    8079
    8081    8085    8086    8081    8085    8095    8082    8081    8083
    8082    8081    8084    8082    8081    8085    8083    8081    8084
    8083    8081    8085    8084    8081    8085    8085    8086    8087
    8085    8086    8088    8085    8086    8089    8085    8095    8092
    8085    8095    8096    8086    8085    8095    8086    8089    8090
    8086    8089    8091    8086    8089    8092    8087    8086    8088
    8087    8086    8089    8088    8086    8089    8089    8092    8093
    8089    8092    8094    8089    8092    8095    8090    8089    8091
    8090    8089    8092    8091    8089    8092    8092    8095    8096
    8093    8092    8094    8093    8092    8095    8094    8092    8095
    8097    8101    8102    8097    8101    8111    8098    8097    8099
    8098    8097    8100    8098    8097    8101    8099    8097    8100
    8099    8097    8101    8100    8097    8101    8101    8102    8103
    8101    8102    8104    8101    8102    8105    8101    8111    8108
    8101    8111    8112    8102    8101    8111    8102    8105    8106
    8102    8105    8107    8102    8105    8108    8103    8102    8104
    8103    8102    8105    8104    8102    8105    8105    8108    8109
    8105    8108    8110    8105    8108    8111    8106    8105    8107
    8106    8105    8108    8107    8105    8108    8108    8111    8112
    8109    8108    8110    8109    8108    8111    8110    8108    8111
    8113    8117    8118    8113    8117    8127    8114    8113    8115
    8114    8113    8116    8114    8113    8117    8115    8113    8116
    8115    8113    8117    8116    8113    8117    8117    8118    8119
    8117    8118    8120    8117    8118    8121    8117    8127    8124
    8117    8127    8128    8118    8117    8127    8118    8121    8122
    8118    8121    8123    8118    8121    8124    8119    8118    8120
    8119    8118    8121    8120    8118    8121    8121    8124    8125
    8121    8124    8126    8121    8124    8127    8122    8121    8123
    8122    8121    8124    8123    8121    8124    8124    8127    8128
    8125    8124    8126    8125    8124    8127    8126    8124    8127
    8129    8133    8134    8129    8133    8143    8130    8129    8131
    8130    8129    8132    8130    8129    8133    8131    8129    8132
    8131    8129    8133    8132    8129    8133    8133    8134    8135
    8133    8134    8136    8133    8134    8137    8133    8143    8140
    8133    8143    8144    8134    8133    8143    8134    8137    8138
    8134    8137    8139    8134    8137    8140    8135    8134    8136
    8135    8134    8137    8136    8134    8137    8137    8140    8141
    8137    8140    8142    8137    8140    8143    8138    8137    8139
    8138    8137    8140    8139    8137    8140    8140    8143    8144
    8141    8140    8142    8141    8140    8143    8142    8140    8143
    8145    8149    8150    8145    8149    8159    8146    8145    8147
    8146    8145    8148    8146    8145    8149    8147    8145    8148
    8147    8145    8149    8148    8145    8149    8149    8150    8151
    8149    8150    8152    8149    8150    8153    8149    8159    8156
    8149    8159    8160    8150    8149    8159    8150    8153    8154
    8150    8153    8155    8150    8153    8156    8151    8150    8152
    8151    8150    8153    8152    8150    8153    8153    8156    8157
    8153    8156    8158    8153    8156    8159    8154    8153    8155
    8154    8153    8156    8155    8153    8156    8156    8159    8160
    8157    8156    8158    8157    8156    8159    8158    8156    8159
    8161    8165    8166    8161    8165    8175    8162    8161    8163
    8162    8161    8164    8162    8161    8165    8163    8161    8164
    8163    8161    8165    8164    8161    8165    8165    8166    8167
    8165    8166    8168    8165    8166    8169    8165    8175    8172
    8165    8175    8176    8166    8165    8175    8166    8169    8170
    8166    8169    8171    8166    8169    8172    8167    8166    8168
    8167    8166    8169    8168    8166    8169    8169    8172    8173
    8169    8172    8174    8169    8172    8175    8170    8169    8171
    8170    8169    8172    8171    8169    8172    8172    8175    8176
    8173    8172    8174    8173    8172    8175    8174    8172    8175
    8177    8181    8182    8177    8181    8191    8178    8177    8179
    8178    8177    8180    8178    8177    8181    8179    8177    8180
    8179    8177    8181    8180    8177    8181    8181    8182    8183
    8181    8182    8184    8181    8182    8185    8181    8191    8188
    8181    8191    8192    8182    8181    8191    8182    8185    8186
    8182    8185    8187    8182    8185    8188    8183    8182    8184
    8183    8182    8185    8184    8182    8185    8185    8188    8189
    8185    8188    8190    8185    8188    8191    8186    8185    8187
    8186    8185    8188    8187    8185    8188    8188    8191    8192
    8189    8188    8190    8189    8188    8191    8190    8188    8191
    8193    8197    8198    8193    8197    8207    8194    8193    8195
    8194    8193    8196    8194    8193    8197    8195    8193    8196
    8195    8193    8197    8196    8193    8197    8197    8198    8199
    8197    8198    8200    8197    8198    8201    8197    8207    8204
    8197    8207    8208    8198    8197    8207    8198    8201    8202
    8198    8201    8203    8198    8201    8204    8199    8198    8200
    8199    8198    8201    8200    8198    8201    8201    8204    8205
    8201    8204    8206    8201    8204    8207    8202    8201    8203
    8202    8201    8204    8203    8201    8204    8204    8207    8208
    8205    8204    8206    8205    8204    8207    8206    8204    8207
    8209    8213    8214    8209    8213    8223    8210    8209    8211
    8210    8209    8212    8210    8209    8213    8211    8209    8212
    8211    8209    8213    8212    8209    8213    8213    8214    8215
    8213    8214    8216    8213    8214    8217    8213    8223    8220
    8213    8223    8224    8214    8213    8223    8214    8217    8218
    8214    8217    8219    8214    8217    8220    8215    8214    8216
    8215    8214    8217    8216    8214    8217    8217    8220    8221
    8217    8220    8222    8217    8220    8223    8218    8217    8219
    8218    8217    8220    8219    8217    8220    8220    8223    8224
    8221    8220    8222    8221    8220    8223    8222    8220    8223
    8225    8229    8230    8225    8229    8239    8226    8225    8227
    8226    8225    8228    8226    8225    8229    8227    8225    8228
    8227    8225    8229    8228    8225    8229    8229    8230    8231
    8229    8230    8232    8229    8230    8233    8229    8239    8236
    8229    8239    8240    8230    8229    8239    8230    8233    8234
    8230    8233    8235    8230    8233    8236    8231    8230    8232
    8231    8230    8233    8232    8230    8233    8233    8236    8237
    8233    8236    8238    8233    8236    8239    8234    8233    8235
    8234    8233    8236    8235    8233    8236    8236    8239    8240
    8237    8236    8238    8237    8236    8239    8238    8236    8239
    8241    8245    8246    8241    8245    8255    8242    8241    8243
    8242    8241    8244    8242    8241    8245    8243    8241    8244
    8243    8241    8245    8244    8241    8245    8245    8246    8247
    8245    8246    8248    8245    8246    8249    8245    8255    8252
    8245    8255    8256    8246    8245    8255    8246    8249    8250
    8246    8249    8251    8246    8249    8252    8247    8246    8248
    8247    8246    8249    8248    8246    8249    8249    8252    8253
    8249    8252    8254    8249    8252    8255    8250    8249    8251
    8250    8249    8252    8251    8249    8252    8252    8255    8256
    8253    8252    8254    8253    8252    8255    8254    8252    8255
    8257    8261    8262    8257    8261    8271    8258    8257    8259
    8258    8257    8260    8258    8257    8261    8259    8257    8260
    8259    8257    8261    8260    8257    8261    8261    8262    8263
    8261    8262    8264    8261    8262    8265    8261    8271    8268
    8261    8271    8272    8262    8261    8271    8262    8265    8266
    8262    8265    8267    8262    8265    8268    8263    8262    8264
    8263    8262    8265    8264    8262    8265    8265    8268    8269
    8265    8268    8270    8265    8268    8271    8266    8265    8267
    8266    8265    8268    8267    8265    8268    8268    8271    8272
    8269    8268    8270    8269    8268    8271    8270    8268    8271
    8273    8277    8278    8273    8277    8287    8274    8273    8275
    8274    8273    8276    8274    8273    8277    8275    8273    8276
    8275    8273    8277    8276    8273    8277    8277    8278    8279
    8277    8278    8280    8277    8278    8281    8277    8287    8284
    8277    8287    8288    8278    8277    8287    8278    8281    8282
    8278    8281    8283    8278    8281    8284    8279    8278    8280
    8279    8278    8281    8280    8278    8281    8281    8284    8285
    8281    8284    8286    8281    8284    8287    8282    8281    8283
    8282    8281    8284    8283    8281    8284    8284    8287    8288
    8285    8284    8286    8285    8284    8287    8286    8284    8287
    8289    8293    8294    8289    8293    8303    8290    8289    8291
    8290    8289    8292    8290    8289    8293    8291    8289    8292
    8291    8289    8293    8292    8289    8293    8293    8294    8295
    8293    8294    8296    8293    8294    8297    8293    8303    8300
    8293    8303    8304    8294    8293    8303    8294    8297    8298
    8294    8297    8299    8294    8297    8300    8295    8294    8296
    8295    8294    8297    8296    8294    8297    8297    8300    8301
    8297    8300    8302    8297    8300    8303    8298    8297    8299
    8298    8297    8300    8299    8297    8300    8300    8303    8304
    8301    8300    8302    8301    8300    8303    8302    8300    8303
    8305    8309    8310    8305    8309    8319    8306    8305    8307
    8306    8305    8308    8306    8305    8309    8307    8305    8308
    8307    8305    8309    8308    8305    8309    8309    8310    8311
    8309    8310    8312    8309    8310    8313    8309    8319    8316
    8309    8319    8320    8310    8309    8319    8310    8313    8314
    8310    8313    8315    8310    8313    8316    8311    8310    8312
    8311    8310    8313    8312    8310    8313    8313    8316    8317
    8313    8316    8318    8313    8316    8319    8314    8313    8315
    8314    8313    8316    8315    8313    8316    8316    8319    8320
    8317    8316    8318    8317    8316    8319    8318    8316    8319
    8321    8325    8326    8321    8325    8335    8322    8321    8323
    8322    8321    8324    8322    8321    8325    8323    8321    8324
    8323    8321    8325    8324    8321    8325    8325    8326    8327
    8325    8326    8328    8325    8326    8329    8325    8335    8332
    8325    8335    8336    8326    8325    8335    8326    8329    8330
    8326    8329    8331    8326    8329    8332    8327    8326    8328
    8327    8326    8329    8328    8326    8329    8329    8332    8333
    8329    8332    8334    8329    8332    8335    8330    8329    8331
    8330    8329    8332    8331    8329    8332    8332    8335    8336
    8333    8332    8334    8333    8332    8335    8334    8332    8335
    8337    8341    8342    8337    8341    8351    8338    8337    8339
    8338    8337    8340    8338    8337    8341    8339    8337    8340
    8339    8337    8341    8340    8337    8341    8341    8342    8343
    8341    8342    8344    8341    8342    8345    8341    8351    8348
    8341    8351    8352    8342    8341    8351    8342    8345    8346
    8342    8345    8347    8342    8345    8348    8343    8342    8344
    8343    8342    8345    8344    8342    8345    8345    8348    8349
    8345    8348    8350    8345    8348    8351    8346    8345    8347
    8346    8345    8348    8347    8345    8348    8348    8351    8352
    8349    8348    8350    8349    8348    8351    8350    8348    8351
    8353    8357    8358    8353    8357    8367    8354    8353    8355
    8354    8353    8356    8354    8353    8357    8355    8353    8356
    8355    8353    8357    8356    8353    8357    8357    8358    8359
    8357    8358    8360    8357    8358    8361    8357    8367    8364
    8357    8367    8368    8358    8357    8367    8358    8361    8362
    8358    8361    8363    8358    8361    8364    8359    8358    8360
    8359    8358    8361    8360    8358    8361    8361    8364    8365
    8361    8364    8366    8361    8364    8367    8362    8361    8363
    8362    8361    8364    8363    8361    8364    8364    8367    8368
    8365    8364    8366    8365    8364    8367    8366    8364    8367
    8369    8373    8374    8369    8373    8383    8370    8369    8371
    8370    8369    8372    8370    8369    8373    8371    8369    8372
    8371    8369    8373    8372    8369    8373    8373    8374    8375
    8373    8374    8376    8373    8374    8377    8373    8383    8380
    8373    8383    8384    8374    8373    8383    8374    8377    8378
    8374    8377    8379    8374    8377    8380    8375    8374    8376
    8375    8374    8377    8376    8374    8377    8377    8380    8381
    8377    8380    8382    8377    8380    8383    8378    8377    8379
    8378    8377    8380    8379    8377    8380    8380    8383    8384
    8381    8380    8382    8381    8380    8383    8382    8380    8383
    8385    8389    8390    8385    8389    8399    8386    8385    8387
    8386    8385    8388    8386    8385    8389    8387    8385    8388
    8387    8385    8389    8388    8385    8389    8389    8390    8391
    8389    8390    8392    8389    8390    8393    8389    8399    8396
    8389    8399    8400    8390    8389    8399    8390    8393    8394
    8390    8393    8395    8390    8393    8396    8391    8390    8392
    8391    8390    8393    8392    8390    8393    8393    8396    8397
    8393    8396    8398    8393    8396    8399    8394    8393    8395
    8394    8393    8396    8395    8393    8396    8396    8399    8400
    8397    8396    8398    8397    8396    8399    8398    8396    8399
    8401    8405    8406    8401    8405    8415    8402    8401    8403
    8402    8401    8404    8402    8401    8405    8403    8401    8404
    8403    8401    8405    8404    8401    8405    8405    8406    8407
    8405    8406    8408    8405    8406    8409    8405    8415    8412
    8405    8415    8416    8406    8405    8415    8406    8409    8410
    8406    8409    8411    8406    8409    8412    8407    8406    8408
    8407    8406    8409    8408    8406    8409    8409    8412    8413
    8409    8412    8414    8409    8412    8415    8410    8409    8411
    8410    8409    8412    8411    8409    8412    8412    8415    8416
    8413    8412    8414    8413    8412    8415    8414    8412    8415
    8417    8421    8422    8417    8421    8431    8418    8417    8419
    8418    8417    8420    8418    8417    8421    8419    8417    8420
    8419    8417    8421    8420    8417    8421    8421    8422    8423
    8421    8422    8424    8421    8422    8425    8421    8431    8428
    8421    8431    8432    8422    8421    8431    8422    8425    8426
    8422    8425    8427    8422    8425    8428    8423    8422    8424
    8423    8422    8425    8424    8422    8425    8425    8428    8429
    8425    8428    8430    8425    8428    8431    8426    8425    8427
    8426    8425    8428    8427    8425    8428    8428    8431    8432
    8429    8428    8430    8429    8428    8431    8430    8428    8431
    8433    8437    8438    8433    8437    8447    8434    8433    8435
    8434    8433    8436    8434    8433    8437    8435    8433    8436
    8435    8433    8437    8436    8433    8437    8437    8438    8439
    8437    8438    8440    8437    8438    8441    8437    8447    8444
    8437    8447    8448    8438    8437    8447    8438    8441    8442
    8438    8441    8443    8438    8441    8444    8439    8438    8440
    8439    8438    8441    8440    8438    8441    8441    8444    8445
    8441    8444    8446    8441    8444    8447    8442    8441    8443
    8442    8441    8444    8443    8441    8444    8444    8447    8448
    8445    8444    8446    8445    8444    8447    8446    8444    8447
    8449    8453    8454    8449    8453    8463    8450    8449    8451
    8450    8449    8452    8450    8449    8453    8451    8449    8452
    8451    8449    8453    8452    8449    8453    8453    8454    8455
    8453    8454    8456    8453    8454    8457    8453    8463    8460
    8453    8463    8464    8454    8453    8463    8454    8457    8458
    8454    8457    8459    8454    8457    8460    8455    8454    8456
    8455    8454    8457    8456    8454    8457    8457    8460    8461
    8457    8460    8462    8457    8460    8463    8458    8457    8459
    8458    8457    8460    8459    8457    8460    8460    8463    8464
    8461    8460    8462    8461    8460    8463    8462    8460    8463
    8465    8469    8470    8465    8469    8479    8466    8465    8467
    8466    8465    8468    8466    8465    8469    8467    8465    8468
    8467    8465    8469    8468    8465    8469    8469    8470    8471
    8469    8470    8472    8469    8470    8473    8469    8479    8476
    8469    8479    8480    8470    8469    8479    8470    8473    8474
    8470    8473    8475    8470    8473    8476    8471    8470    8472
    8471    8470    8473    8472    8470    8473    8473    8476    8477
    8473    8476    8478    8473    8476    8479    8474    8473    8475
    8474    8473    8476    8475    8473    8476    8476    8479    8480
    8477    8476    8478    8477    8476    8479    8478    8476    8479
    8481    8485    8486    8481    8485    8495    8482    8481    8483
    8482    8481    8484    8482    8481    8485    8483    8481    8484
    8483    8481    8485    8484    8481    8485    8485    8486    8487
    8485    8486    8488    8485    8486    8489    8485    8495    8492
    8485    8495    8496    8486    8485    8495    8486    8489    8490
    8486    8489    8491    8486    8489    8492    8487    8486    8488
    8487    8486    8489    8488    8486    8489    8489    8492    8493
    8489    8492    8494    8489    8492    8495    8490    8489    8491
    8490    8489    8492    8491    8489    8492    8492    8495    8496
    8493    8492    8494    8493    8492    8495    8494    8492    8495
    8497    8501    8502    8497    8501    8511    8498    8497    8499
    8498    8497    8500    8498    8497    8501    8499    8497    8500
    8499    8497    8501    8500    8497    8501    8501    8502    8503
    8501    8502    8504    8501    8502    8505    8501    8511    8508
    8501    8511    8512    8502    8501    8511    8502    8505    8506
    8502    8505    8507    8502    8505    8508    8503    8502    8504
    8503    8502    8505    8504    8502    8505    8505    8508    8509
    8505    8508    8510    8505    8508    8511    8506    8505    8507
    8506    8505    8508    8507    8505    8508    8508    8511    8512
    8509    8508    8510    8509    8508    8511    8510    8508    8511
    8513    8517    8518    8513    8517    8527    8514    8513    8515
    8514    8513    8516    8514    8513    8517    8515    8513    8516
    8515    8513    8517    8516    8513    8517    8517    8518    8519
    8517    8518    8520    8517    8518    8521    8517    8527    8524
    8517    8527    8528    8518    8517    8527    8518    8521    8522
    8518    8521    8523    8518    8521    8524    8519    8518    8520
    8519    8518    8521    8520    8518    8521    8521    8524    8525
    8521    8524    8526    8521    8524    8527    8522    8521    8523
    8522    8521    8524    8523    8521    8524    8524    8527    8528
    8525    8524    8526    8525    8524    8527    8526    8524    8527
    8529    8533    8534    8529    8533    8543    8530    8529    8531
    8530    8529    8532    8530    8529    8533    8531    8529    8532
    8531    8529    8533    8532    8529    8533    8533    8534    8535
    8533    8534    8536    8533    8534    8537    8533    8543    8540
    8533    8543    8544    8534    8533    8543    8534    8537    8538
    8534    8537    8539    8534    8537    8540    8535    8534    8536
    8535    8534    8537    8536    8534    8537    8537    8540    8541
    8537    8540    8542    8537    8540    8543    8538    8537    8539
    8538    8537    8540    8539    8537    8540    8540    8543    8544
    8541    8540    8542    8541    8540    8543    8542    8540    8543
    8545    8549    8550    8545    8549    8559    8546    8545    8547
    8546    8545    8548    8546    8545    8549    8547    8545    8548
    8547    8545    8549    8548    8545    8549    8549    8550    8551
    8549    8550    8552    8549    8550    8553    8549    8559    8556
    8549    8559    8560    8550    8549    8559    8550    8553    8554
    8550    8553    8555    8550    8553    8556    8551    8550    8552
    8551    8550    8553    8552    8550    8553    8553    8556    8557
    8553    8556    8558    8553    8556    8559    8554    8553    8555
    8554    8553    8556    8555    8553    8556    8556    8559    8560
    8557    8556    8558    8557    8556    8559    8558    8556    8559
    8561    8565    8566    8561    8565    8575    8562    8561    8563
    8562    8561    8564    8562    8561    8565    8563    8561    8564
    8563    8561    8565    8564    8561    8565    8565    8566    8567
    8565    8566    8568    8565    8566    8569    8565    8575    8572
    8565    8575    8576    8566    8565    8575    8566    8569    8570
    8566    8569    8571    8566    8569    8572    8567    8566    8568
    8567    8566    8569    8568    8566    8569    8569    8572    8573
    8569    8572    8574    8569    8572    8575    8570    8569    8571
    8570    8569    8572    8571    8569    8572    8572    8575    8576
    8573    8572    8574    8573    8572    8575    8574    8572    8575
    8577    8581    8582    8577    8581    8591    8578    8577    8579
    8578    8577    8580    8578    8577    8581    8579    8577    8580
    8579    8577    8581    8580    8577    8581    8581    8582    8583
    8581    8582    8584    8581    8582    8585    8581    8591    8588
    8581    8591    8592    8582    8581    8591    8582    8585    8586
    8582    8585    8587    8582    8585    8588    8583    8582    8584
    8583    8582    8585    8584    8582    8585    8585    8588    8589
    8585    8588    8590    8585    8588    8591    8586    8585    8587
    8586    8585    8588    8587    8585    8588    8588    8591    8592
    8589    8588    8590    8589    8588    8591    8590    8588    8591
    8593    8597    8598    8593    8597    8607    8594    8593    8595
    8594    8593    8596    8594    8593    8597    8595    8593    8596
    8595    8593    8597    8596    8593    8597    8597    8598    8599
    8597    8598    8600    8597    8598    8601    8597    8607    8604
    8597    8607    8608    8598    8597    8607    8598    8601    8602
    8598    8601    8603    8598    8601    8604    8599    8598    8600
    8599    8598    8601    8600    8598    8601    8601    8604    8605
    8601    8604    8606    8601    8604    8607    8602    8601    8603
    8602    8601    8604    8603    8601    8604    8604    8607    8608
    8605    8604    8606    8605    8604    8607    8606    8604    8607
    8609    8613    8614    8609    8613    8623    8610    8609    8611
    8610    8609    8612    8610    8609    8613    8611    8609    8612
    8611    8609    8613    8612    8609    8613    8613    8614    8615
    8613    8614    8616    8613    8614    8617    8613    8623    8620
    8613    8623    8624    8614    8613    8623    8614    8617    8618
    8614    8617    8619    8614    8617    8620    8615    8614    8616
    8615    8614    8617    8616    8614    8617    8617    8620    8621
    8617    8620    8622    8617    8620    8623    8618    8617    8619
    8618    8617    8620    8619    8617    8620    8620    8623    8624
    8621    8620    8622    8621    8620    8623    8622    8620    8623
    8625    8629    8630    8625    8629    8639    8626    8625    8627
    8626    8625    8628    8626    8625    8629    8627    8625    8628
    8627    8625    8629    8628    8625    8629    8629    8630    8631
    8629    8630    8632    8629    8630    8633    8629    8639    8636
    8629    8639    8640    8630    8629    8639    8630    8633    8634
    8630    8633    8635    8630    8633    8636    8631    8630    8632
    8631    8630    8633    8632    8630    8633    8633    8636    8637
    8633    8636    8638    8633    8636    8639    8634    8633    8635
    8634    8633    8636    8635    8633    8636    8636    8639    8640
    8637    8636    8638    8637    8636    8639    8638    8636    8639
    8641    8645    8646    8641    8645    8655    8642    8641    8643
    8642    8641    8644    8642    8641    8645    8643    8641    8644
    8643    8641    8645    8644    8641    8645    8645    8646    8647
    8645    8646    8648    8645    8646    8649    8645    8655    8652
    8645    8655    8656    8646    8645    8655    8646    8649    8650
    8646    8649    8651    8646    8649    8652    8647    8646    8648
    8647    8646    8649    8648    8646    8649    8649    8652    8653
    8649    8652    8654    8649    8652    8655    8650    8649    8651
    8650    8649    8652    8651    8649    8652    8652    8655    8656
    8653    8652    8654    8653    8652    8655    8654    8652    8655
    8657    8661    8662    8657    8661    8671    8658    8657    8659
    8658    8657    8660    8658    8657    8661    8659    8657    8660
    8659    8657    8661    8660    8657    8661    8661    8662    8663
    8661    8662    8664    8661    8662    8665    8661    8671    8668
    8661    8671    8672    8662    8661    8671    8662    8665    8666
    8662    8665    8667    8662    8665    8668    8663    8662    8664
    8663    8662    8665    8664    8662    8665    8665    8668    8669
    8665    8668    8670    8665    8668    8671    8666    8665    8667
    8666    8665    8668    8667    8665    8668    8668    8671    8672
    8669    8668    8670    8669    8668    8671    8670    8668    8671
    8673    8677    8678    8673    8677    8687    8674    8673    8675
    8674    8673    8676    8674    8673    8677    8675    8673    8676
    8675    8673    8677    8676    8673    8677    8677    8678    8679
    8677    8678    8680    8677    8678    8681    8677    8687    8684
    8677    8687    8688    8678    8677    8687    8678    8681    8682
    8678    8681    8683    8678    8681    8684    8679    8678    8680
    8679    8678    8681    8680    8678    8681    8681    8684    8685
    8681    8684    8686    8681    8684    8687    8682    8681    8683
    8682    8681    8684    8683    8681    8684    8684    8687    8688
    8685    8684    8686    8685    8684    8687    8686    8684    8687
    8689    8693    8694    8689    8693    8703    8690    8689    8691
    8690    8689    8692    8690    8689    8693    8691    8689    8692
    8691    8689    8693    8692    8689    8693    8693    8694    8695
    8693    8694    8696    8693    8694    8697    8693    8703    8700
    8693    8703    8704    8694    8693    8703    8694    8697    8698
    8694    8697    8699    8694    8697    8700    8695    8694    8696
    8695    8694    8697    8696    8694    8697    8697    8700    8701
    8697    8700    8702    8697    8700    8703    8698    8697    8699
    8698    8697    8700    8699    8697    8700    8700    8703    8704
    8701    8700    8702    8701    8700    8703    8702    8700    8703
    8705    8709    8710    8705    8709    8719    8706    8705    8707
    8706    8705    8708    8706    8705    8709    8707    8705    8708
    8707    8705    8709    8708    8705    8709    8709    8710    8711
    8709    8710    8712    8709    8710    8713    8709    8719    8716
    8709    8719    8720    8710    8709    8719    8710    8713    8714
    8710    8713    8715    8710    8713    8716    8711    8710    8712
    8711    8710    8713    8712    8710    8713    8713    8716    8717
    8713    8716    8718    8713    8716    8719    8714    8713    8715
    8714    8713    8716    8715    8713    8716    8716    8719    8720
    8717    8716    8718    8717    8716    8719    8718    8716    8719
    8721    8725    8726    8721    8725    8735    8722    8721    8723
    8722    8721    8724    8722    8721    8725    8723    8721    8724
    8723    8721    8725    8724    8721    8725    8725    8726    8727
    8725    8726    8728    8725    8726    8729    8725    8735    8732
    8725    8735    8736    8726    8725    8735    8726    8729    8730
    8726    8729    8731    8726    8729    8732    8727    8726    8728
    8727    8726    8729    8728    8726    8729    8729    8732    8733
    8729    8732    8734    8729    8732    8735    8730    8729    8731
    8730    8729    8732    8731    8729    8732    8732    8735    8736
    8733    8732    8734    8733    8732    8735    8734    8732    8735
    8737    8741    8742    8737    8741    8751    8738    8737    8739
    8738    8737    8740    8738    8737    8741    8739    8737    8740
    8739    8737    8741    8740    8737    8741    8741    8742    8743
    8741    8742    8744    8741    8742    8745    8741    8751    8748
    8741    8751    8752    8742    8741    8751    8742    8745    8746
    8742    8745    8747    8742    8745    8748    8743    8742    8744
    8743    8742    8745    8744    8742    8745    8745    8748    8749
    8745    8748    8750    8745    8748    8751    8746    8745    8747
    8746    8745    8748    8747    8745    8748    8748    8751    8752
    8749    8748    8750    8749    8748    8751    8750    8748    8751
    8753    8757    8758    8753    8757    8767    8754    8753    8755
    8754    8753    8756    8754    8753    8757    8755    8753    8756
    8755    8753    8757    8756    8753    8757    8757    8758    8759
    8757    8758    8760    8757    8758    8761    8757    8767    8764
    8757    8767    8768    8758    8757    8767    8758    8761    8762
    8758    8761    8763    8758    8761    8764    8759    8758    8760
    8759    8758    8761    8760    8758    8761    8761    8764    8765
    8761    8764    8766    8761    8764    8767    8762    8761    8763
    8762    8761    8764    8763    8761    8764    8764    8767    8768
    8765    8764    8766    8765    8764    8767    8766    8764    8767
    8769    8773    8774    8769    8773    8783    8770    8769    8771
    8770    8769    8772    8770    8769    8773    8771    8769    8772
    8771    8769    8773    8772    8769    8773    8773    8774    8775
    8773    8774    8776    8773    8774    8777    8773    8783    8780
    8773    8783    8784    8774    8773    8783    8774    8777    8778
    8774    8777    8779    8774    8777    8780    8775    8774    8776
    8775    8774    8777    8776    8774    8777    8777    8780    8781
    8777    8780    8782    8777    8780    8783    8778    8777    8779
    8778    8777    8780    8779    8777    8780    8780    8783    8784
    8781    8780    8782    8781    8780    8783    8782    8780    8783
    8785    8789    8790    8785    8789    8799    8786    8785    8787
    8786    8785    8788    8786    8785    8789    8787    8785    8788
    8787    8785    8789    8788    8785    8789    8789    8790    8791
    8789    8790    8792    8789    8790    8793    8789    8799    8796
    8789    8799    8800    8790    8789    8799    8790    8793    8794
    8790    8793    8795    8790    8793    8796    8791    8790    8792
    8791    8790    8793    8792    8790    8793    8793    8796    8797
    8793    8796    8798    8793    8796    8799    8794    8793    8795
    8794    8793    8796    8795    8793    8796    8796    8799    8800
    8797    8796    8798    8797    8796    8799    8798    8796    8799
    8801    8805    8806    8801    8805    8815    8802    8801    8803
    8802    8801    8804    8802    8801    8805    8803    8801    8804
    8803    8801    8805    8804    8801    8805    8805    8806    8807
    8805    8806    8808    8805    8806    8809    8805    8815    8812
    8805    8815    8816    8806    8805    8815    8806    8809    8810
    8806    8809    8811    8806    8809    8812    8807    8806    8808
    8807    8806    8809    8808    8806    8809    8809    8812    8813
    8809    8812    8814    8809    8812    8815    8810    8809    8811
    8810    8809    8812    8811    8809    8812    8812    8815    8816
    8813    8812    8814    8813    8812    8815    8814    8812    8815
    8817    8821    8822    8817    8821    8831    8818    8817    8819
    8818    8817    8820    8818    8817    8821    8819    8817    8820
    8819    8817    8821    8820    8817    8821    8821    8822    8823
    8821    8822    8824    8821    8822    8825    8821    8831    8828
    8821    8831    8832    8822    8821    8831    8822    8825    8826
    8822    8825    8827    8822    8825    8828    8823    8822    8824
    8823    8822    8825    8824    8822    8825    8825    8828    8829
    8825    8828    8830    8825    8828    8831    8826    8825    8827
    8826    8825    8828    8827    8825    8828    8828    8831    8832
    8829    8828    8830    8829    8828    8831    8830    8828    8831
    8833    8837    8838    8833    8837    8847    8834    8833    8835
    8834    8833    8836    8834    8833    8837    8835    8833    8836
    8835    8833    8837    8836    8833    8837    8837    8838    8839
    8837    8838    8840    8837    8838    8841    8837    8847    8844
    8837    8847    8848    8838    8837    8847    8838    8841    8842
    8838    8841    8843    8838    8841    8844    8839    8838    8840
    8839    8838    8841    8840    8838    8841    8841    8844    8845
    8841    8844    8846    8841    8844    8847    8842    8841    8843
    8842    8841    8844    8843    8841    8844    8844    8847    8848
    8845    8844    8846    8845    8844    8847    8846    8844    8847
    8849    8853    8854    8849    8853    8863    8850    8849    8851
    8850    8849    8852    8850    8849    8853    8851    8849    8852
    8851    8849    8853    8852    8849    8853    8853    8854    8855
    8853    8854    8856    8853    8854    8857    8853    8863    8860
    8853    8863    8864    8854    8853    8863    8854    8857    8858
    8854    8857    8859    8854    8857    8860    8855    8854    8856
    8855    8854    8857    8856    8854    8857    8857    8860    8861
    8857    8860    8862    8857    8860    8863    8858    8857    8859
    8858    8857    8860    8859    8857    8860    8860    8863    8864
    8861    8860    8862    8861    8860    8863    8862    8860    8863
    8865    8869    8870    8865    8869    8879    8866    8865    8867
    8866    8865    8868    8866    8865    8869    8867    8865    8868
    8867    8865    8869    8868    8865    8869    8869    8870    8871
    8869    8870    8872    8869    8870    8873    8869    8879    8876
    8869    8879    8880    8870    8869    8879    8870    8873    8874
    8870    8873    8875    8870    8873    8876    8871    8870    8872
    8871    8870    8873    8872    8870    8873    8873    8876    8877
    8873    8876    8878    8873    8876    8879    8874    8873    8875
    8874    8873    8876    8875    8873    8876    8876    8879    8880
    8877    8876    8878    8877    8876    8879    8878    8876    8879
    8881    8885    8886    8881    8885    8895    8882    8881    8883
    8882    8881    8884    8882    8881    8885    8883    8881    8884
    8883    8881    8885    8884    8881    8885    8885    8886    8887
    8885    8886    8888    8885    8886    8889    8885    8895    8892
    8885    8895    8896    8886    8885    8895    8886    8889    8890
    8886    8889    8891    8886    8889    8892    8887    8886    8888
    8887    8886    8889    8888    8886    8889    8889    8892    8893
    8889    8892    8894    8889    8892    8895    8890    8889    8891
    8890    8889    8892    8891    8889    8892    8892    8895    8896
    8893    8892    8894    8893    8892    8895    8894    8892    8895
    8897    8901    8902    8897    8901    8911    8898    8897    8899
    8898    8897    8900    8898    8897    8901    8899    8897    8900
    8899    8897    8901    8900    8897    8901    8901    8902    8903
    8901    8902    8904    8901    8902    8905    8901    8911    8908
    8901    8911    8912    8902    8901    8911    8902    8905    8906
    8902    8905    8907    8902    8905    8908    8903    8902    8904
    8903    8902    8905    8904    8902    8905    8905    8908    8909
    8905    8908    8910    8905    8908    8911    8906    8905    8907
    8906    8905    8908    8907    8905    8908    8908    8911    8912
    8909    8908    8910    8909    8908    8911    8910    8908    8911
    8913    8917    8918    8913    8917    8927    8914    8913    8915
    8914    8913    8916    8914    8913    8917    8915    8913    8916
    8915    8913    8917    8916    8913    8917    8917    8918    8919
    8917    8918    8920    8917    8918    8921    8917    8927    8924
    8917    8927    8928    8918    8917    8927    8918    8921    8922
    8918    8921    8923    8918    8921    8924    8919    8918    8920
    8919    8918    8921    8920    8918    8921    8921    8924    8925
    8921    8924    8926    8921    8924    8927    8922    8921    8923
    8922    8921    8924    8923    8921    8924    8924    8927    8928
    8925    8924    8926    8925    8924    8927    8926    8924    8927
    8929    8933    8934    8929    8933    8943    8930    8929    8931
    8930    8929    8932    8930    8929    8933    8931    8929    8932
    8931    8929    8933    8932    8929    8933    8933    8934    8935
    8933    8934    8936    8933    8934    8937    8933    8943    8940
    8933    8943    8944    8934    8933    8943    8934    8937    8938
    8934    8937    8939    8934    8937    8940    8935    8934    8936
    8935    8934    8937    8936    8934    8937    8937    8940    8941
    8937    8940    8942    8937    8940    8943    8938    8937    8939
    8938    8937    8940    8939    8937    8940    8940    8943    8944
    8941    8940    8942    8941    8940    8943    8942    8940    8943
    8945    8949    8950    8945    8949    8959    8946    8945    8947
    8946    8945    8948    8946    8945    8949    8947    8945    8948
    8947    8945    8949    8948    8945    8949    8949    8950    8951
    8949    8950    8952    8949    8950    8953    8949    8959    8956
    8949    8959    8960    8950    8949    8959    8950    8953    8954
    8950    8953    8955    8950    8953    8956    8951    8950    8952
    8951    8950    8953    8952    8950    8953    8953    8956    8957
    8953    8956    8958    8953    8956    8959    8954    8953    8955
    8954    8953    8956    8955    8953    8956    8956    8959    8960
    8957    8956    8958    8957    8956    8959    8958    8956    8959
    8961    8965    8966    8961    8965    8975    8962    8961    8963
    8962    8961    8964    8962    8961    8965    8963    8961    8964
    8963    8961    8965    8964    8961    8965    8965    8966    8967
    8965    8966    8968    8965    8966    8969    8965    8975    8972
    8965    8975    8976    8966    8965    8975    8966    8969    8970
    8966    8969    8971    8966    8969    8972    8967    8966    8968
    8967    8966    8969    8968    8966    8969    8969    8972    8973
    8969    8972    8974    8969    8972    8975    8970    8969    8971
    8970    8969    8972    8971    8969    8972    8972    8975    8976
    8973    8972    8974    8973    8972    8975    8974    8972    8975
    8977    8981    8982    8977    8981    8991    8978    8977    8979
    8978    8977    8980    8978    8977    8981    8979    8977    8980
    8979    8977    8981    8980    8977    8981    8981    8982    8983
    8981    8982    8984    8981    8982    8985    8981    8991    8988
    8981    8991    8992    8982    8981    8991    8982    8985    8986
    8982    8985    8987    8982    8985    8988    8983    8982    8984
    8983    8982    8985    8984    8982    8985    8985    8988    8989
    8985    8988    8990    8985    8988    8991    8986    8985    8987
    8986    8985    8988    8987    8985    8988    8988    8991    8992
    8989    8988    8990    8989    8988    8991    8990    8988    8991
    8993    8997    8998    8993    8997    9007    8994    8993    8995
    8994    8993    8996    8994    8993    8997    8995    8993    8996
    8995    8993    8997    8996    8993    8997    8997    8998    8999
    8997    8998    9000    8997    8998    9001    8997    9007    9004
    8997    9007    9008    8998    8997    9007    8998    9001    9002
    8998    9001    9003    8998    9001    9004    8999    8998    9000
    8999    8998    9001    9000    8998    9001    9001    9004    9005
    9001    9004    9006    9001    9004    9007    9002    9001    9003
    9002    9001    9004    9003    9001    9004    9004    9007    9008
    9005    9004    9006    9005    9004    9007    9006    9004    9007
    9009    9013    9014    9009    9013    9023    9010    9009    9011
    9010    9009    9012    9010    9009    9013    9011    9009    9012
    9011    9009    9013    9012    9009    9013    9013    9014    9015
    9013    9014    9016    9013    9014    9017    9013    9023    9020
    9013    9023    9024    9014    9013    9023    9014    9017    9018
    9014    9017    9019    9014    9017    9020    9015    9014    9016
    9015    9014    9017    9016    9014    9017    9017    9020    9021
    9017    9020    9022    9017    9020    9023    9018    9017    9019
    9018    9017    9020    9019    9017    9020    9020    9023    9024
    9021    9020    9022    9021    9020    9023    9022    9020    9023
    9025    9029    9030    9025    9029    9039    9026    9025    9027
    9026    9025    9028    9026    9025    9029    9027    9025    9028
    9027    9025    9029    9028    9025    9029    9029    9030    9031
    9029    9030    9032    9029    9030    9033    9029    9039    9036
    9029    9039    9040    9030    9029    9039    9030    9033    9034
    9030    9033    9035    9030    9033    9036    9031    9030    9032
    9031    9030    9033    9032    9030    9033    9033    9036    9037
    9033    9036    9038    9033    9036    9039    9034    9033    9035
    9034    9033    9036    9035    9033    9036    9036    9039    9040
    9037    9036    9038    9037    9036    9039    9038    9036    9039
    9041    9045    9046    9041    9045    9055    9042    9041    9043
    9042    9041    9044    9042    9041    9045    9043    9041    9044
    9043    9041    9045    9044    9041    9045    9045    9046    9047
    9045    9046    9048    9045    9046    9049    9045    9055    9052
    9045    9055    9056    9046    9045    9055    9046    9049    9050
    9046    9049    9051    9046    9049    9052    9047    9046    9048
    9047    9046    9049    9048    9046    9049    9049    9052    9053
    9049    9052    9054    9049    9052    9055    9050    9049    9051
    9050    9049    9052    9051    9049    9052    9052    9055    9056
    9053    9052    9054    9053    9052    9055    9054    9052    9055
    9057    9061    9062    9057    9061    9071    9058    9057    9059
    9058    9057    9060    9058    9057    9061    9059    9057    9060
    9059    9057    9061    9060    9057    9061    9061    9062    9063
    9061    9062    9064    9061    9062    9065    9061    9071    9068
    9061    9071    9072    9062    9061    9071    9062    9065    9066
    9062    9065    9067    9062    9065    9068    9063    9062    9064
    9063    9062    9065    9064    9062    9065    9065    9068    9069
    9065    9068    9070    9065    9068    9071    9066    9065    9067
    9066    9065    9068    9067    9065    9068    9068    9071    9072
    9069    9068    9070    9069    9068    9071    9070    9068    9071
    9073    9077    9078    9073    9077    9087    9074    9073    9075
    9074    9073    9076    9074    9073    9077    9075    9073    9076
    9075    9073    9077    9076    9073    9077    9077    9078    9079
    9077    9078    9080    9077    9078    9081    9077    9087    9084
    9077    9087    9088    9078    9077    9087    9078    9081    9082
    9078    9081    9083    9078    9081    9084    9079    9078    9080
    9079    9078    9081    9080    9078    9081    9081    9084    9085
    9081    9084    9086    9081    9084    9087    9082    9081    9083
    9082    9081    9084    9083    9081    9084    9084    9087    9088
    9085    9084    9086    9085    9084    9087    9086    9084    9087
    9089    9093    9094    9089    9093    9103    9090    9089    9091
    9090    9089    9092    9090    9089    9093    9091    9089    9092
    9091    9089    9093    9092    9089    9093    9093    9094    9095
    9093    9094    9096    9093    9094    9097    9093    9103    9100
    9093    9103    9104    9094    9093    9103    9094    9097    9098
    9094    9097    9099    9094    9097    9100    9095    9094    9096
    9095    9094    9097    9096    9094    9097    9097    9100    9101
    9097    9100    9102    9097    9100    9103    9098    9097    9099
    9098    9097    9100    9099    9097    9100    9100    9103    9104
    9101    9100    9102    9101    9100    9103    9102    9100    9103
    9105    9109    9110    9105    9109    9119    9106    9105    9107
    9106    9105    9108    9106    9105    9109    9107    9105    9108
    9107    9105    9109    9108    9105    9109    9109    9110    9111
    9109    9110    9112    9109    9110    9113    9109    9119    9116
    9109    9119    9120    9110    9109    9119    9110    9113    9114
    9110    9113    9115    9110    9113    9116    9111    9110    9112
    9111    9110    9113    9112    9110    9113    9113    9116    9117
    9113    9116    9118    9113    9116    9119    9114    9113    9115
    9114    9113    9116    9115    9113    9116    9116    9119    9120
    9117    9116    9118    9117    9116    9119    9118    9116    9119
    9121    9125    9126    9121    9125    9135    9122    9121    9123
    9122    9121    9124    9122    9121    9125    9123    9121    9124
    9123    9121    9125    9124    9121    9125    9125    9126    9127
    9125    9126    9128    9125    9126    9129    9125    9135    9132
    9125    9135    9136    9126    9125    9135    9126    9129    9130
    9126    9129    9131    9126    9129    9132    9127    9126    9128
    9127    9126    9129    9128    9126    9129    9129    9132    9133
    9129    9132    9134    9129    9132    9135    9130    9129    9131
    9130    9129    9132    9131    9129    9132    9132    9135    9136
    9133    9132    9134    9133    9132    9135    9134    9132    9135
    9137    9141    9142    9137    9141    9151    9138    9137    9139
    9138    9137    9140    9138    9137    9141    9139    9137    9140
    9139    9137    9141    9140    9137    9141    9141    9142    9143
    9141    9142    9144    9141    9142    9145    9141    9151    9148
    9141    9151    9152    9142    9141    9151    9142    9145    9146
    9142    9145    9147    9142    9145    9148    9143    9142    9144
    9143    9142    9145    9144    9142    9145    9145    9148    9149
    9145    9148    9150    9145    9148    9151    9146    9145    9147
    9146    9145    9148    9147    9145    9148    9148    9151    9152
    9149    9148    9150    9149    9148    9151    9150    9148    9151
    9153    9157    9158    9153    9157    9167    9154    9153    9155
    9154    9153    9156    9154    9153    9157    9155    9153    9156
    9155    9153    9157    9156    9153    9157    9157    9158    9159
    9157    9158    9160    9157    9158    9161    9157    9167    9164
    9157    9167    9168    9158    9157    9167    9158    9161    9162
    9158    9161    9163    9158    9161    9164    9159    9158    9160
    9159    9158    9161    9160    9158    9161    9161    9164    9165
    9161    9164    9166    9161    9164    9167    9162    9161    9163
    9162    9161    9164    9163    9161    9164    9164    9167    9168
    9165    9164    9166    9165    9164    9167    9166    9164    9167
    9169    9173    9174    9169    9173    9183    9170    9169    9171
    9170    9169    9172    9170    9169    9173    9171    9169    9172
    9171    9169    9173    9172    9169    9173    9173    9174    9175
    9173    9174    9176    9173    9174    9177    9173    9183    9180
    9173    9183    9184    9174    9173    9183    9174    9177    9178
    9174    9177    9179    9174    9177    9180    9175    9174    9176
    9175    9174    9177    9176    9174    9177    9177    9180    9181
    9177    9180    9182    9177    9180    9183    9178    9177    9179
    9178    9177    9180    9179    9177    9180    9180    9183    9184
    9181    9180    9182    9181    9180    9183    9182    9180    9183
    9185    9189    9190    9185    9189    9199    9186    9185    9187
    9186    9185    9188    9186    9185    9189    9187    9185    9188
    9187    9185    9189    9188    9185    9189    9189    9190    9191
    9189    9190    9192    9189    9190    9193    9189    9199    9196
    9189    9199    9200    9190    9189    9199    9190    9193    9194
    9190    9193    9195    9190    9193    9196    9191    9190    9192
    9191    9190    9193    9192    9190    9193    9193    9196    9197
    9193    9196    9198    9193    9196    9199    9194    9193    9195
    9194    9193    9196    9195    9193    9196    9196    9199    9200
    9197    9196    9198    9197    9196    9199    9198    9196    9199
    9201    9205    9206    9201    9205    9215    9202    9201    9203
    9202    9201    9204    9202    9201    9205    9203    9201    9204
    9203    9201    9205    9204    9201    9205    9205    9206    9207
    9205    9206    9208    9205    9206    9209    9205    9215    9212
    9205    9215    9216    9206    9205    9215    9206    9209    9210
    9206    9209    9211    9206    9209    9212    9207    9206    9208
    9207    9206    9209    9208    9206    9209    9209    9212    9213
    9209    9212    9214    9209    9212    9215    9210    9209    9211
    9210    9209    9212    9211    9209    9212    9212    9215    9216
    9213    9212    9214    9213    9212    9215    9214    9212    9215
    9217    9221    9222    9217    9221    9231    9218    9217    9219
    9218    9217    9220    9218    9217    9221    9219    9217    9220
    9219    9217    9221    9220    9217    9221    9221    9222    9223
    9221    9222    9224    9221    9222    9225    9221    9231    9228
    9221    9231    9232    9222    9221    9231    9222    9225    9226
    9222    9225    9227    9222    9225    9228    9223    9222    9224
    9223    9222    9225    9224    9222    9225    9225    9228    9229
    9225    9228    9230    9225    9228    9231    9226    9225    9227
    9226    9225    9228    9227    9225    9228    9228    9231    9232
    9229    9228    9230    9229    9228    9231    9230    9228    9231
    9233    9237    9238    9233    9237    9247    9234    9233    9235
    9234    9233    9236    9234    9233    9237    9235    9233    9236
    9235    9233    9237    9236    9233    9237    9237    9238    9239
    9237    9238    9240    9237    9238    9241    9237    9247    9244
    9237    9247    9248    9238    9237    9247    9238    9241    9242
    9238    9241    9243    9238    9241    9244    9239    9238    9240
    9239    9238    9241    9240    9238    9241    9241    9244    9245
    9241    9244    9246    9241    9244    9247    9242    9241    9243
    9242    9241    9244    9243    9241    9244    9244    9247    9248
    9245    9244    9246    9245    9244    9247    9246    9244    9247
    9249    9253    9254    9249    9253    9263    9250    9249    9251
    9250    9249    9252    9250    9249    9253    9251    9249    9252
    9251    9249    9253    9252    9249    9253    9253    9254    9255
    9253    9254    9256    9253    9254    9257    9253    9263    9260
    9253    9263    9264    9254    9253    9263    9254    9257    9258
    9254    9257    9259    9254    9257    9260    9255    9254    9256
    9255    9254    9257    9256    9254    9257    9257    9260    9261
    9257    9260    9262    9257    9260    9263    9258    9257    9259
    9258    9257    9260    9259    9257    9260    9260    9263    9264
    9261    9260    9262    9261    9260    9263    9262    9260    9263
    9265    9269    9270    9265    9269    9279    9266    9265    9267
    9266    9265    9268    9266    9265    9269    9267    9265    9268
    9267    9265    9269    9268    9265    9269    9269    9270    9271
    9269    9270    9272    9269    9270    9273    9269    9279    9276
    9269    9279    9280    9270    9269    9279    9270    9273    9274
    9270    9273    9275    9270    9273    9276    9271    9270    9272
    9271    9270    9273    9272    9270    9273    9273    9276    9277
    9273    9276    9278    9273    9276    9279    9274    9273    9275
    9274    9273    9276    9275    9273    9276    9276    9279    9280
    9277    9276    9278    9277    9276    9279    9278    9276    9279
    9281    9285    9286    9281    9285    9295    9282    9281    9283
    9282    9281    9284    9282    9281    9285    9283    9281    9284
    9283    9281    9285    9284    9281    9285    9285    9286    9287
    9285    9286    9288    9285    9286    9289    9285    9295    9292
    9285    9295    9296    9286    9285    9295    9286    9289    9290
    9286    9289    9291    9286    9289    9292    9287    9286    9288
    9287    9286    9289    9288    9286    9289    9289    9292    9293
    9289    9292    9294    9289    9292    9295    9290    9289    9291
    9290    9289    9292    9291    9289    9292    9292    9295    9296
    9293    9292    9294    9293    9292    9295    9294    9292    9295
    9297    9301    9302    9297    9301    9311    9298    9297    9299
    9298    9297    9300    9298    9297    9301    9299    9297    9300
    9299    9297    9301    9300    9297    9301    9301    9302    9303
    9301    9302    9304    9301    9302    9305    9301    9311    9308
    9301    9311    9312    9302    9301    9311    9302    9305    9306
    9302    9305    9307    9302    9305    9308    9303    9302    9304
    9303    9302    9305    9304    9302    9305    9305    9308    9309
    9305    9308    9310    9305    9308    9311    9306    9305    9307
    9306    9305    9308    9307    9305    9308    9308    9311    9312
    9309    9308    9310    9309    9308    9311    9310    9308    9311
    9313    9317    9318    9313    9317    9327    9314    9313    9315
    9314    9313    9316    9314    9313    9317    9315    9313    9316
    9315    9313    9317    9316    9313    9317    9317    9318    9319
    9317    9318    9320    9317    9318    9321    9317    9327    9324
    9317    9327    9328    9318    9317    9327    9318    9321    9322
    9318    9321    9323    9318    9321    9324    9319    9318    9320
    9319    9318    9321    9320    9318    9321    9321    9324    9325
    9321    9324    9326    9321    9324    9327    9322    9321    9323
    9322    9321    9324    9323    9321    9324    9324    9327    9328
    9325    9324    9326    9325    9324    9327    9326    9324    9327
    9329    9333    9334    9329    9333    9343    9330    9329    9331
    9330    9329    9332    9330    9329    9333    9331    9329    9332
    9331    9329    9333    9332    9329    9333    9333    9334    9335
    9333    9334    9336    9333    9334    9337    9333    9343    9340
    9333    9343    9344    9334    9333    9343    9334    9337    9338
    9334    9337    9339    9334    9337    9340    9335    9334    9336
    9335    9334    9337    9336    9334    9337    9337    9340    9341
    9337    9340    9342    9337    9340    9343    9338    9337    9339
    9338    9337    9340    9339    9337    9340    9340    9343    9344
    9341    9340    9342    9341    9340    9343    9342    9340    9343
    9345    9349    9350    9345    9349    9359    9346    9345    9347
    9346    9345    9348    9346    9345    9349    9347    9345    9348
    9347    9345    9349    9348    9345    9349    9349    9350    9351
    9349    9350    9352    9349    9350    9353    9349    9359    9356
    9349    9359    9360    9350    9349    9359    9350    9353    9354
    9350    9353    9355    9350    9353    9356    9351    9350    9352
    9351    9350    9353    9352    9350    9353    9353    9356    9357
    9353    9356    9358    9353    9356    9359    9354    9353    9355
    9354    9353    9356    9355    9353    9356    9356    9359    9360
    9357    9356    9358    9357    9356    9359    9358    9356    9359
    9361    9365    9366    9361    9365    9375    9362    9361    9363
    9362    9361    9364    9362    9361    9365    9363    9361    9364
    9363    9361    9365    9364    9361    9365    9365    9366    9367
    9365    9366    9368    9365    9366    9369    9365    9375    9372
    9365    9375    9376    9366    9365    9375    9366    9369    9370
    9366    9369    9371    9366    9369    9372    9367    9366    9368
    9367    9366    9369    9368    9366    9369    9369    9372    9373
    9369    9372    9374    9369    9372    9375    9370    9369    9371
    9370    9369    9372    9371    9369    9372    9372    9375    9376
    9373    9372    9374    9373    9372    9375    9374    9372    9375
    9377    9381    9382    9377    9381    9391    9378    9377    9379
    9378    9377    9380    9378    9377    9381    9379    9377    9380
    9379    9377    9381    9380    9377    9381    9381    9382    9383
    9381    9382    9384    9381    9382    9385    9381    9391    9388
    9381    9391    9392    9382    9381    9391    9382    9385    9386
    9382    9385    9387    9382    9385    9388    9383    9382    9384
    9383    9382    9385    9384    9382    9385    9385    9388    9389
    9385    9388    9390    9385    9388    9391    9386    9385    9387
    9386    9385    9388    9387    9385    9388    9388    9391    9392
    9389    9388    9390    9389    9388    9391    9390    9388    9391
    9393    9397    9398    9393    9397    9407    9394    9393    9395
    9394    9393    9396    9394    9393    9397    9395    9393    9396
    9395    9393    9397    9396    9393    9397    9397    9398    9399
    9397    9398    9400    9397    9398    9401    9397    9407    9404
    9397    9407    9408    9398    9397    9407    9398    9401    9402
    9398    9401    9403    9398    9401    9404    9399    9398    9400
    9399    9398    9401    9400    9398    9401    9401    9404    9405
    9401    9404    9406    9401    9404    9407    9402    9401    9403
    9402    9401    9404    9403    9401    9404    9404    9407    9408
    9405    9404    9406    9405    9404    9407    9406    9404    9407
    9409    9413    9414    9409    9413    9423    9410    9409    9411
    9410    9409    9412    9410    9409    9413    9411    9409    9412
    9411    9409    9413    9412    9409    9413    9413    9414    9415
    9413    9414    9416    9413    9414    9417    9413    9423    9420
    9413    9423    9424    9414    9413    9423    9414    9417    9418
    9414    9417    9419    9414    9417    9420    9415    9414    9416
    9415    9414    9417    9416    9414    9417    9417    9420    9421
    9417    9420    9422    9417    9420    9423    9418    9417    9419
    9418    9417    9420    9419    9417    9420    9420    9423    9424
    9421    9420    9422    9421    9420    9423    9422    9420    9423
    9425    9429    9430    9425    9429    9439    9426    9425    9427
    9426    9425    9428    9426    9425    9429    9427    9425    9428
    9427    9425    9429    9428    9425    9429    9429    9430    9431
    9429    9430    9432    9429    9430    9433    9429    9439    9436
    9429    9439    9440    9430    9429    9439    9430    9433    9434
    9430    9433    9435    9430    9433    9436    9431    9430    9432
    9431    9430    9433    9432    9430    9433    9433    9436    9437
    9433    9436    9438    9433    9436    9439    9434    9433    9435
    9434    9433    9436    9435    9433    9436    9436    9439    9440
    9437    9436    9438    9437    9436    9439    9438    9436    9439
    9441    9445    9446    9441    9445    9455    9442    9441    9443
    9442    9441    9444    9442    9441    9445    9443    9441    9444
    9443    9441    9445    9444    9441    9445    9445    9446    9447
    9445    9446    9448    9445    9446    9449    9445    9455    9452
    9445    9455    9456    9446    9445    9455    9446    9449    9450
    9446    9449    9451    9446    9449    9452    9447    9446    9448
    9447    9446    9449    9448    9446    9449    9449    9452    9453
    9449    9452    9454    9449    9452    9455    9450    9449    9451
    9450    9449    9452    9451    9449    9452    9452    9455    9456
    9453    9452    9454    9453    9452    9455    9454    9452    9455
    9457    9461    9462    9457    9461    9471    9458    9457    9459
    9458    9457    9460    9458    9457    9461    9459    9457    9460
    9459    9457    9461    9460    9457    9461    9461    9462    9463
    9461    9462    9464    9461    9462    9465    9461    9471    9468
    9461    9471    9472    9462    9461    9471    9462    9465    9466
    9462    9465    9467    9462    9465    9468    9463    9462    9464
    9463    9462    9465    9464    9462    9465    9465    9468    9469
    9465    9468    9470    9465    9468    9471    9466    9465    9467
    9466    9465    9468    9467    9465    9468    9468    9471    9472
    9469    9468    9470    9469    9468    9471    9470    9468    9471
    9473    9477    9478    9473    9477    9487    9474    9473    9475
    9474    9473    9476    9474    9473    9477    9475    9473    9476
    9475    9473    9477    9476    9473    9477    9477    9478    9479
    9477    9478    9480    9477    9478    9481    9477    9487    9484
    9477    9487    9488    9478    9477    9487    9478    9481    9482
    9478    9481    9483    9478    9481    9484    9479    9478    9480
    9479    9478    9481    9480    9478    9481    9481    9484    9485
    9481    9484    9486    9481    9484    9487    9482    9481    9483
    9482    9481    9484    9483    9481    9484    9484    9487    9488
    9485    9484    9486    9485    9484    9487    9486    9484    9487
    9489    9493    9494    9489    9493    9503    9490    9489    9491
    9490    9489    9492    9490    9489    9493    9491    9489    9492
    9491    9489    9493    9492    9489    9493    9493    9494    9495
    9493    9494    9496    9493    9494    9497    9493    9503    9500
    9493    9503    9504    9494    9493    9503    9494    9497    9498
    9494    9497    9499    9494    9497    9500    9495    9494    9496
    9495    9494    9497    9496    9494    9497    9497    9500    9501
    9497    9500    9502    9497    9500    9503    9498    9497    9499
    9498    9497    9500    9499    9497    9500    9500    9503    9504
    9501    9500    9502    9501    9500    9503    9502    9500    9503
    9505    9509    9510    9505    9509    9519    9506    9505    9507
    9506    9505    9508    9506    9505    9509    9507    9505    9508
    9507    9505    9509    9508    9505    9509    9509    9510    9511
    9509    9510    9512    9509    9510    9513    9509    9519    9516
    9509    9519    9520    9510    9509    9519    9510    9513    9514
    9510    9513    9515    9510    9513    9516    9511    9510    9512
    9511    9510    9513    9512    9510    9513    9513    9516    9517
    9513    9516    9518    9513    9516    9519    9514    9513    9515
    9514    9513    9516    9515    9513    9516    9516    9519    9520
    9517    9516    9518    9517    9516    9519    9518    9516    9519
    9521    9525    9526    9521    9525    9535    9522    9521    9523
    9522    9521    9524    9522    9521    9525    9523    9521    9524
    9523    9521    9525    9524    9521    9525    9525    9526    9527
    9525    9526    9528    9525    9526    9529    9525    9535    9532
    9525    9535    9536    9526    9525    9535    9526    9529    9530
    9526    9529    9531    9526    9529    9532    9527    9526    9528
    9527    9526    9529    9528    9526    9529    9529    9532    9533
    9529    9532    9534    9529    9532    9535    9530    9529    9531
    9530    9529    9532    9531    9529    9532    9532    9535    9536
    9533    9532    9534    9533    9532    9535    9534    9532    9535
    9537    9541    9542    9537    9541    9551    9538    9537    9539
    9538    9537    9540    9538    9537    9541    9539    9537    9540
    9539    9537    9541    9540    9537    9541    9541    9542    9543
    9541    9542    9544    9541    9542    9545    9541    9551    9548
    9541    9551    9552    9542    9541    9551    9542    9545    9546
    9542    9545    9547    9542    9545    9548    9543    9542    9544
    9543    9542    9545    9544    9542    9545    9545    9548    9549
    9545    9548    9550    9545    9548    9551    9546    9545    9547
    9546    9545    9548    9547    9545    9548    9548    9551    9552
    9549    9548    9550    9549    9548    9551    9550    9548    9551
    9553    9557    9558    9553    9557    9567    9554    9553    9555
    9554    9553    9556    9554    9553    9557    9555    9553    9556
    9555    9553    9557    9556    9553    9557    9557    9558    9559
    9557    9558    9560    9557    9558    9561    9557    9567    9564
    9557    9567    9568    9558    9557    9567    9558    9561    9562
    9558    9561    9563    9558    9561    9564    9559    9558    9560
    9559    9558    9561    9560    9558    9561    9561    9564    9565
    9561    9564    9566    9561    9564    9567    9562    9561    9563
    9562    9561    9564    9563    9561    9564    9564    9567    9568
    9565    9564    9566    9565    9564    9567    9566    9564    9567
    9569    9573    9574    9569    9573    9583    9570    9569    9571
    9570    9569    9572    9570    9569    9573    9571    9569    9572
    9571    9569    9573    9572    9569    9573    9573    9574    9575
    9573    9574    9576    9573    9574    9577    9573    9583    9580
    9573    9583    9584    9574    9573    9583    9574    9577    9578
    9574    9577    9579    9574    9577    9580    9575    9574    9576
    9575    9574    9577    9576    9574    9577    9577    9580    9581
    9577    9580    9582    9577    9580    9583    9578    9577    9579
    9578    9577    9580    9579    9577    9580    9580    9583    9584
    9581    9580    9582    9581    9580    9583    9582    9580    9583
    9585    9589    9590    9585    9589    9599    9586    9585    9587
    9586    9585    9588    9586    9585    9589    9587    9585    9588
    9587    9585    9589    9588    9585    9589    9589    9590    9591
    9589    9590    9592    9589    9590    9593    9589    9599    9596
    9589    9599    9600    9590    9589    9599    9590    9593    9594
    9590    9593    9595    9590    9593    9596    9591    9590    9592
    9591    9590    9593    9592    9590    9593    9593    9596    9597
    9593    9596    9598    9593    9596    9599    9594    9593    9595
    9594    9593    9596    9595    9593    9596    9596    9599    9600
    9597    9596    9598    9597    9596    9599    9598    9596    9599
    9601    9605    9606    9601    9605    9615    9602    9601    9603
    9602    9601    9604    9602    9601    9605    9603    9601    9604
    9603    9601    9605    9604    9601    9605    9605    9606    9607
    9605    9606    9608    9605    9606    9609    9605    9615    9612
    9605    9615    9616    9606    9605    9615    9606    9609    9610
    9606    9609    9611    9606    9609    9612    9607    9606    9608
    9607    9606    9609    9608    9606    9609    9609    9612    9613
    9609    9612    9614    9609    9612    9615    9610    9609    9611
    9610    9609    9612    9611    9609    9612    9612    9615    9616
    9613    9612    9614    9613    9612    9615    9614    9612    9615
    9617    9621    9622    9617    9621    9631    9618    9617    9619
    9618    9617    9620    9618    9617    9621    9619    9617    9620
    9619    9617    9621    9620    9617    9621    9621    9622    9623
    9621    9622    9624    9621    9622    9625    9621    9631    9628
    9621    9631    9632    9622    9621    9631    9622    9625    9626
    9622    9625    9627    9622    9625    9628    9623    9622    9624
    9623    9622    9625    9624    9622    9625    9625    9628    9629
    9625    9628    9630    9625    9628    9631    9626    9625    9627
    9626    9625    9628    9627    9625    9628    9628    9631    9632
    9629    9628    9630    9629    9628    9631    9630    9628    9631
    9633    9637    9638    9633    9637    9647    9634    9633    9635
    9634    9633    9636    9634    9633    9637    9635    9633    9636
    9635    9633    9637    9636    9633    9637    9637    9638    9639
    9637    9638    9640    9637    9638    9641    9637    9647    9644
    9637    9647    9648    9638    9637    9647    9638    9641    9642
    9638    9641    9643    9638    9641    9644    9639    9638    9640
    9639    9638    9641    9640    9638    9641    9641    9644    9645
    9641    9644    9646    9641    9644    9647    9642    9641    9643
    9642    9641    9644    9643    9641    9644    9644    9647    9648
    9645    9644    9646    9645    9644    9647    9646    9644    9647
    9649    9653    9654    9649    9653    9663    9650    9649    9651
    9650    9649    9652    9650    9649    9653    9651    9649    9652
    9651    9649    9653    9652    9649    9653    9653    9654    9655
    9653    9654    9656    9653    9654    9657    9653    9663    9660
    9653    9663    9664    9654    9653    9663    9654    9657    9658
    9654    9657    9659    9654    9657    9660    9655    9654    9656
    9655    9654    9657    9656    9654    9657    9657    9660    9661
    9657    9660    9662    9657    9660    9663    9658    9657    9659
    9658    9657    9660    9659    9657    9660    9660    9663    9664
    9661    9660    9662    9661    9660    9663    9662    9660    9663
    9665    9669    9670    9665    9669    9679    9666    9665    9667
    9666    9665    9668    9666    9665    9669    9667    9665    9668
    9667    9665    9669    9668    9665    9669    9669    9670    9671
    9669    9670    9672    9669    9670    9673    9669    9679    9676
    9669    9679    9680    9670    9669    9679    9670    9673    9674
    9670    9673    9675    9670    9673    9676    9671    9670    9672
    9671    9670    9673    9672    9670    9673    9673    9676    9677
    9673    9676    9678    9673    9676    9679    9674    9673    9675
    9674    9673    9676    9675    9673    9676    9676    9679    9680
    9677    9676    9678    9677    9676    9679    9678    9676    9679
    9681    9685    9686    9681    9685    9695    9682    9681    9683
    9682    9681    9684    9682    9681    9685    9683    9681    9684
    9683    9681    9685    9684    9681    9685    9685    9686    9687
    9685    9686    9688    9685    9686    9689    9685    9695    9692
    9685    9695    9696    9686    9685    9695    9686    9689    9690
    9686    9689    9691    9686    9689    9692    9687    9686    9688
    9687    9686    9689    9688    9686    9689    9689    9692    9693
    9689    9692    9694    9689    9692    9695    9690    9689    9691
    9690    9689    9692    9691    9689    9692    9692    9695    9696
    9693    9692    9694    9693    9692    9695    9694    9692    9695
    9697    9701    9702    9697    9701    9711    9698    9697    9699
    9698    9697    9700    9698    9697    9701    9699    9697    9700
    9699    9697    9701    9700    9697    9701    9701    9702    9703
    9701    9702    9704    9701    9702    9705    9701    9711    9708
    9701    9711    9712    9702    9701    9711    9702    9705    9706
    9702    9705    9707    9702    9705    9708    9703    9702    9704
    9703    9702    9705    9704    9702    9705    9705    9708    9709
    9705    9708    9710    9705    9708    9711    9706    9705    9707
    9706    9705    9708    9707    9705    9708    9708    9711    9712
    9709    9708    9710    9709    9708    9711    9710    9708    9711
    9713    9717    9718    9713    9717    9727    9714    9713    9715
    9714    9713    9716    9714    9713    9717    9715    9713    9716
    9715    9713    9717    9716    9713    9717    9717    9718    9719
    9717    9718    9720    9717    9718    9721    9717    9727    9724
    9717    9727    9728    9718    9717    9727    9718    9721    9722
    9718    9721    9723    9718    9721    9724    9719    9718    9720
    9719    9718    9721    9720    9718    9721    9721    9724    9725
    9721    9724    9726    9721    9724    9727    9722    9721    9723
    9722    9721    9724    9723    9721    9724    9724    9727    9728
    9725    9724    9726    9725    9724    9727    9726    9724    9727
    9729    9733    9734    9729    9733    9743    9730    9729    9731
    9730    9729    9732    9730    9729    9733    9731    9729    9732
    9731    9729    9733    9732    9729    9733    9733    9734    9735
    9733    9734    9736    9733    9734    9737    9733    9743    9740
    9733    9743    9744    9734    9733    9743    9734    9737    9738
    9734    9737    9739    9734    9737    9740    9735    9734    9736
    9735    9734    9737    9736    9734    9737    9737    9740    9741
    9737    9740    9742    9737    9740    9743    9738    9737    9739
    9738    9737    9740    9739    9737    9740    9740    9743    9744
    9741    9740    9742    9741    9740    9743    9742    9740    9743
    9745    9749    9750    9745    9749    9759    9746    9745    9747
    9746    9745    9748    9746    9745    9749    9747    9745    9748
    9747    9745    9749    9748    9745    9749    9749    9750    9751
    9749    9750    9752    9749    9750    9753    9749    9759    9756
    9749    9759    9760    9750    9749    9759    9750    9753    9754
    9750    9753    9755    9750    9753    9756    9751    9750    9752
    9751    9750    9753    9752    9750    9753    9753    9756    9757
    9753    9756    9758    9753    9756    9759    9754    9753    9755
    9754    9753    9756    9755    9753    9756    9756    9759    9760
    9757    9756    9758    9757    9756    9759    9758    9756    9759
    9761    9765    9766    9761    9765    9775    9762    9761    9763
    9762    9761    9764    9762    9761    9765    9763    9761    9764
    9763    9761    9765    9764    9761    9765    9765    9766    9767
    9765    9766    9768    9765    9766    9769    9765    9775    9772
    9765    9775    9776    9766    9765    9775    9766    9769    9770
    9766    9769    9771    9766    9769    9772    9767    9766    9768
    9767    9766    9769    9768    9766    9769    9769    9772    9773
    9769    9772    9774    9769    9772    9775    9770    9769    9771
    9770    9769    9772    9771    9769    9772    9772    9775    9776
    9773    9772    9774    9773    9772    9775    9774    9772    9775
    9777    9781    9782    9777    9781    9791    9778    9777    9779
    9778    9777    9780    9778    9777    9781    9779    9777    9780
    9779    9777    9781    9780    9777    9781    9781    9782    9783
    9781    9782    9784    9781    9782    9785    9781    9791    9788
    9781    9791    9792    9782    9781    9791    9782    9785    9786
    9782    9785    9787    9782    9785    9788    9783    9782    9784
    9783    9782    9785    9784    9782    9785    9785    9788    9789
    9785    9788    9790    9785    9788    9791    9786    9785    9787
    9786    9785    9788    9787    9785    9788    9788    9791    9792
    9789    9788    9790    9789    9788    9791    9790    9788    9791
    9793    9797    9798    9793    9797    9807    9794    9793    9795
    9794    9793    9796    9794    9793    9797    9795    9793    9796
    9795    9793    9797    9796    9793    9797    9797    9798    9799
    9797    9798    9800    9797    9798    9801    9797    9807    9804
    9797    9807    9808    9798    9797    9807    9798    9801    9802
    9798    9801    9803    9798    9801    9804    9799    9798    9800
    9799    9798    9801    9800    9798    9801    9801    9804    9805
    9801    9804    9806    9801    9804    9807    9802    9801    9803
    9802    9801    9804    9803    9801    9804    9804    9807    9808
    9805    9804    9806    9805    9804    9807    9806    9804    9807
    9809    9813    9814    9809    9813    9823    9810    9809    9811
    9810    9809    9812    9810    9809    9813    9811    9809    9812
    9811    9809    9813    9812    9809    9813    9813    9814    9815
    9813    9814    9816    9813    9814    9817    9813    9823    9820
    9813    9823    9824    9814    9813    9823    9814    9817    9818
    9814    9817    9819    9814    9817    9820    9815    9814    9816
    9815    9814    9817    9816    9814    9817    9817    9820    9821
    9817    9820    9822    9817    9820    9823    9818    9817    9819
    9818    9817    9820    9819    9817    9820    9820    9823    9824
    9821    9820    9822    9821    9820    9823    9822    9820    9823
    9825    9829    9830    9825    9829    9839    9826    9825    9827
    9826    9825    9828    9826    9825    9829    9827    9825    9828
    9827    9825    9829    9828    9825    9829    9829    9830    9831
    9829    9830    9832    9829    9830    9833    9829    9839    9836
    9829    9839    9840    9830    9829    9839    9830    9833    9834
    9830    9833    9835    9830    9833    9836    9831    9830    9832
    9831    9830    9833    9832    9830    9833    9833    9836    9837
    9833    9836    9838    9833    9836    9839    9834    9833    9835
    9834    9833    9836    9835    9833    9836    9836    9839    9840
    9837    9836    9838    9837    9836    9839    9838    9836    9839
    9841    9845    9846    9841    9845    9855    9842    9841    9843
    9842    9841    9844    9842    9841    9845    9843    9841    9844
    9843    9841    9845    9844    9841    9845    9845    9846    9847
    9845    9846    9848    9845    9846    9849    9845    9855    9852
    9845    9855    9856    9846    9845    9855    9846    9849    9850
    9846    9849    9851    9846    9849    9852    9847    9846    9848
    9847    9846    9849    9848    9846    9849    9849    9852    9853
    9849    9852    9854    9849    9852    9855    9850    9849    9851
    9850    9849    9852    9851    9849    9852    9852    9855    9856
    9853    9852    9854    9853    9852    9855    9854    9852    9855
    9857    9861    9862    9857    9861    9871    9858    9857    9859
    9858    9857    9860    9858    9857    9861    9859    9857    9860
    9859    9857    9861    9860    9857    9861    9861    9862    9863
    9861    9862    9864    9861    9862    9865    9861    9871    9868
    9861    9871    9872    9862    9861    9871    9862    9865    9866
    9862    9865    9867    9862    9865    9868    9863    9862    9864
    9863    9862    9865    9864    9862    9865    9865    9868    9869
    9865    9868    9870    9865    9868    9871    9866    9865    9867
    9866    9865    9868    9867    9865    9868    9868    9871    9872
    9869    9868    9870    9869    9868    9871    9870    9868    9871
    9873    9877    9878    9873    9877    9887    9874    9873    9875
    9874    9873    9876    9874    9873    9877    9875    9873    9876
    9875    9873    9877    9876    9873    9877    9877    9878    9879
    9877    9878    9880    9877    9878    9881    9877    9887    9884
    9877    9887    9888    9878    9877    9887    9878    9881    9882
    9878    9881    9883    9878    9881    9884    9879    9878    9880
    9879    9878    9881    9880    9878    9881    9881    9884    9885
    9881    9884    9886    9881    9884    9887    9882    9881    9883
    9882    9881    9884    9883    9881    9884    9884    9887    9888
    9885    9884    9886    9885    9884    9887    9886    9884    9887
    9889    9893    9894    9889    9893    9903    9890    9889    9891
    9890    9889    9892    9890    9889    9893    9891    9889    9892
    9891    9889    9893    9892    9889    9893    9893    9894    9895
    9893    9894    9896    9893    9894    9897    9893    9903    9900
    9893    9903    9904    9894    9893    9903    9894    9897    9898
    9894    9897    9899    9894    9897    9900    9895    9894    9896
    9895    9894    9897    9896    9894    9897    9897    9900    9901
    9897    9900    9902    9897    9900    9903    9898    9897    9899
    9898    9897    9900    9899    9897    9900    9900    9903    9904
    9901    9900    9902    9901    9900    9903    9902    9900    9903
    9905    9909    9910    9905    9909    9919    9906    9905    9907
    9906    9905    9908    9906    9905    9909    9907    9905    9908
    9907    9905    9909    9908    9905    9909    9909    9910    9911
    9909    9910    9912    9909    9910    9913    9909    9919    9916
    9909    9919    9920    9910    9909    9919    9910    9913    9914
    9910    9913    9915    9910    9913    9916    9911    9910    9912
    9911    9910    9913    9912    9910    9913    9913    9916    9917
    9913    9916    9918    9913    9916    9919    9914    9913    9915
    9914    9913    9916    9915    9913    9916    9916    9919    9920
    9917    9916    9918    9917    9916    9919    9918    9916    9919
    9921    9925    9926    9921    9925    9935    9922    9921    9923
    9922    9921    9924    9922    9921    9925    9923    9921    9924
    9923    9921    9925    9924    9921    9925    9925    9926    9927
    9925    9926    9928    9925    9926    9929    9925    9935    9932
    9925    9935    9936    9926    9925    9935    9926    9929    9930
    9926    9929    9931    9926    9929    9932    9927    9926    9928
    9927    9926    9929    9928    9926    9929    9929    9932    9933
    9929    9932    9934    9929    9932    9935    9930    9929    9931
    9930    9929    9932    9931    9929    9932    9932    9935    9936
    9933    9932    9934    9933    9932    9935    9934    9932    9935
    9937    9941    9942    9937    9941    9951    9938    9937    9939
    9938    9937    9940    9938    9937    9941    9939    9937    9940
    9939    9937    9941    9940    9937    9941    9941    9942    9943
    9941    9942    9944    9941    9942    9945    9941    9951    9948
    9941    9951    9952    9942    9941    9951    9942    9945    9946
    9942    9945    9947    9942    9945    9948    9943    9942    9944
    9943    9942    9945    9944    9942    9945    9945    9948    9949
    9945    9948    9950    9945    9948    9951    9946    9945    9947
    9946    9945    9948    9947    9945    9948    9948    9951    9952
    9949    9948    9950    9949    9948    9951    9950    9948    9951
    9953    9957    9958    9953    9957    9967    9954    9953    9955
    9954    9953    9956    9954    9953    9957    9955    9953    9956
    9955    9953    9957    9956    9953    9957    9957    9958    9959
    9957    9958    9960    9957    9958    9961    9957    9967    9964
    9957    9967    9968    9958    9957    9967    9958    9961    9962
    9958    9961    9963    9958    9961    9964    9959    9958    9960
    9959    9958    9961    9960    9958    9961    9961    9964    9965
    9961    9964    9966    9961    9964    9967    9962    9961    9963
    9962    9961    9964    9963    9961    9964    9964    9967    9968
    9965    9964    9966    9965    9964    9967    9966    9964    9967
    9969    9973    9974    9969    9973    9983    9970    9969    9971
    9970    9969    9972    9970    9969    9973    9971    9969    9972
    9971    9969    9973    9972    9969    9973    9973    9974    9975
    9973    9974    9976    9973    9974    9977    9973    9983    9980
    9973    9983    9984    9974    9973    9983    9974    9977    9978
    9974    9977    9979    9974    9977    9980    9975    9974    9976
    9975    9974    9977    9976    9974    9977    9977    9980    9981
    9977    9980    9982    9977    9980    9983    9978    9977    9979
    9978    9977    9980    9979    9977    9980    9980    9983    9984
    9981    9980    9982    9981    9980    9983    9982    9980    9983
    9985    9989    9990    9985    9989    9999    9986    9985    9987
    9986    9985    9988    9986    9985    9989    9987    9985    9988
    9987    9985    9989    9988    9985    9989    9989    9990    9991
    9989    9990    9992    9989    9990    9993    9989    9999    9996
    9989    9999   10000    9990    9989    9999    9990    9993    9994
    9990    9993    9995    9990    9993    9996    9991    9990    9992
    9991    9990    9993    9992    9990    9993    9993    9996    9997
    9993    9996    9998    9993    9996    9999    9994    9993    9995
    9994    9993    9996    9995    9993    9996    9996    9999   10000
    9997    9996    9998    9997    9996    9999    9998    9996    9999
   10001   10005   10006   10001   10005   10015   10002   10001   10003
   10002   10001   10004   10002   10001   10005   10003   10001   10004
   10003   10001   10005   10004   10001   10005   10005   10006   10007
   10005   10006   10008   10005   10006   10009   10005   10015   10012
   10005   10015   10016   10006   10005   10015   10006   10009   10010
   10006   10009   10011   10006   10009   10012   10007   10006   10008
   10007   10006   10009   10008   10006   10009   10009   10012   10013
   10009   10012   10014   10009   10012   10015   10010   10009   10011
   10010   10009   10012   10011   10009   10012   10012   10015   10016
   10013   10012   10014   10013   10012   10015   10014   10012   10015
   10017   10021   10022   10017   10021   10031   10018   10017   10019
   10018   10017   10020   10018   10017   10021   10019   10017   10020
   10019   10017   10021   10020   10017   10021   10021   10022   10023
   10021   10022   10024   10021   10022   10025   10021   10031   10028
   10021   10031   10032   10022   10021   10031   10022   10025   10026
   10022   10025   10027   10022   10025   10028   10023   10022   10024
   10023   10022   10025   10024   10022   10025   10025   10028   10029
   10025   10028   10030   10025   10028   10031   10026   10025   10027
   10026   10025   10028   10027   10025   10028   10028   10031   10032
   10029   10028   10030   10029   10028   10031   10030   10028   10031
   10033   10037   10038   10033   10037   10047   10034   10033   10035
   10034   10033   10036   10034   10033   10037   10035   10033   10036
   10035   10033   10037   10036   10033   10037   10037   10038   10039
   10037   10038   10040   10037   10038   10041   10037   10047   10044
   10037   10047   10048   10038   10037   10047   10038   10041   10042
   10038   10041   10043   10038   10041   10044   10039   10038   10040
   10039   10038   10041   10040   10038   10041   10041   10044   10045
   10041   10044   10046   10041   10044   10047   10042   10041   10043
   10042   10041   10044   10043   10041   10044   10044   10047   10048
   10045   10044   10046   10045   10044   10047   10046   10044   10047
   10049   10053   10054   10049   10053   10063   10050   10049   10051
   10050   10049   10052   10050   10049   10053   10051   10049   10052
   10051   10049   10053   10052   10049   10053   10053   10054   10055
   10053   10054   10056   10053   10054   10057   10053   10063   10060
   10053   10063   10064   10054   10053   10063   10054   10057   10058
   10054   10057   10059   10054   10057   10060   10055   10054   10056
   10055   10054   10057   10056   10054   10057   10057   10060   10061
   10057   10060   10062   10057   10060   10063   10058   10057   10059
   10058   10057   10060   10059   10057   10060   10060   10063   10064
   10061   10060   10062   10061   10060   10063   10062   10060   10063
   10065   10069   10070   10065   10069   10079   10066   10065   10067
   10066   10065   10068   10066   10065   10069   10067   10065   10068
   10067   10065   10069   10068   10065   10069   10069   10070   10071
   10069   10070   10072   10069   10070   10073   10069   10079   10076
   10069   10079   10080   10070   10069   10079   10070   10073   10074
   10070   10073   10075   10070   10073   10076   10071   10070   10072
   10071   10070   10073   10072   10070   10073   10073   10076   10077
   10073   10076   10078   10073   10076   10079   10074   10073   10075
   10074   10073   10076   10075   10073   10076   10076   10079   10080
   10077   10076   10078   10077   10076   10079   10078   10076   10079
   10081   10085   10086   10081   10085   10095   10082   10081   10083
   10082   10081   10084   10082   10081   10085   10083   10081   10084
   10083   10081   10085   10084   10081   10085   10085   10086   10087
   10085   10086   10088   10085   10086   10089   10085   10095   10092
   10085   10095   10096   10086   10085   10095   10086   10089   10090
   10086   10089   10091   10086   10089   10092   10087   10086   10088
   10087   10086   10089   10088   10086   10089   10089   10092   10093
   10089   10092   10094   10089   10092   10095   10090   10089   10091
   10090   10089   10092   10091   10089   10092   10092   10095   10096
   10093   10092   10094   10093   10092   10095   10094   10092   10095
   10097   10101   10102   10097   10101   10111   10098   10097   10099
   10098   10097   10100   10098   10097   10101   10099   10097   10100
   10099   10097   10101   10100   10097   10101   10101   10102   10103
   10101   10102   10104   10101   10102   10105   10101   10111   10108
   10101   10111   10112   10102   10101   10111   10102   10105   10106
   10102   10105   10107   10102   10105   10108   10103   10102   10104
   10103   10102   10105   10104   10102   10105   10105   10108   10109
   10105   10108   10110   10105   10108   10111   10106   10105   10107
   10106   10105   10108   10107   10105   10108   10108   10111   10112
   10109   10108   10110   10109   10108   10111   10110   10108   10111
   10113   10117   10118   10113   10117   10127   10114   10113   10115
   10114   10113   10116   10114   10113   10117   10115   10113   10116
   10115   10113   10117   10116   10113   10117   10117   10118   10119
   10117   10118   10120   10117   10118   10121   10117   10127   10124
   10117   10127   10128   10118   10117   10127   10118   10121   10122
   10118   10121   10123   10118   10121   10124   10119   10118   10120
   10119   10118   10121   10120   10118   10121   10121   10124   10125
   10121   10124   10126   10121   10124   10127   10122   10121   10123
   10122   10121   10124   10123   10121   10124   10124   10127   10128
   10125   10124   10126   10125   10124   10127   10126   10124   10127
   10129   10133   10134   10129   10133   10143   10130   10129   10131
   10130   10129   10132   10130   10129   10133   10131   10129   10132
   10131   10129   10133   10132   10129   10133   10133   10134   10135
   10133   10134   10136   10133   10134   10137   10133   10143   10140
   10133   10143   10144   10134   10133   10143   10134   10137   10138
   10134   10137   10139   10134   10137   10140   10135   10134   10136
   10135   10134   10137   10136   10134   10137   10137   10140   10141
   10137   10140   10142   10137   10140   10143   10138   10137   10139
   10138   10137   10140   10139   10137   10140   10140   10143   10144
   10141   10140   10142   10141   10140   10143   10142   10140   10143
   10145   10149   10150   10145   10149   10159   10146   10145   10147
   10146   10145   10148   10146   10145   10149   10147   10145   10148
   10147   10145   10149   10148   10145   10149   10149   10150   10151
   10149   10150   10152   10149   10150   10153   10149   10159   10156
   10149   10159   10160   10150   10149   10159   10150   10153   10154
   10150   10153   10155   10150   10153   10156   10151   10150   10152
   10151   10150   10153   10152   10150   10153   10153   10156   10157
   10153   10156   10158   10153   10156   10159   10154   10153   10155
   10154   10153   10156   10155   10153   10156   10156   10159   10160
   10157   10156   10158   10157   10156   10159   10158   10156   10159
   10161   10165   10166   10161   10165   10175   10162   10161   10163
   10162   10161   10164   10162   10161   10165   10163   10161   10164
   10163   10161   10165   10164   10161   10165   10165   10166   10167
   10165   10166   10168   10165   10166   10169   10165   10175   10172
   10165   10175   10176   10166   10165   10175   10166   10169   10170
   10166   10169   10171   10166   10169   10172   10167   10166   10168
   10167   10166   10169   10168   10166   10169   10169   10172   10173
   10169   10172   10174   10169   10172   10175   10170   10169   10171
   10170   10169   10172   10171   10169   10172   10172   10175   10176
   10173   10172   10174   10173   10172   10175   10174   10172   10175
   10177   10181   10182   10177   10181   10191   10178   10177   10179
   10178   10177   10180   10178   10177   10181   10179   10177   10180
   10179   10177   10181   10180   10177   10181   10181   10182   10183
   10181   10182   10184   10181   10182   10185   10181   10191   10188
   10181   10191   10192   10182   10181   10191   10182   10185   10186
   10182   10185   10187   10182   10185   10188   10183   10182   10184
   10183   10182   10185   10184   10182   10185   10185   10188   10189
   10185   10188   10190   10185   10188   10191   10186   10185   10187
   10186   10185   10188   10187   10185   10188   10188   10191   10192
   10189   10188   10190   10189   10188   10191   10190   10188   10191
   10193   10197   10198   10193   10197   10207   10194   10193   10195
   10194   10193   10196   10194   10193   10197   10195   10193   10196
   10195   10193   10197   10196   10193   10197   10197   10198   10199
   10197   10198   10200   10197   10198   10201   10197   10207   10204
   10197   10207   10208   10198   10197   10207   10198   10201   10202
   10198   10201   10203   10198   10201   10204   10199   10198   10200
   10199   10198   10201   10200   10198   10201   10201   10204   10205
   10201   10204   10206   10201   10204   10207   10202   10201   10203
   10202   10201   10204   10203   10201   10204   10204   10207   10208
   10205   10204   10206   10205   10204   10207   10206   10204   10207
   10209   10213   10214   10209   10213   10223   10210   10209   10211
   10210   10209   10212   10210   10209   10213   10211   10209   10212
   10211   10209   10213   10212   10209   10213   10213   10214   10215
   10213   10214   10216   10213   10214   10217   10213   10223   10220
   10213   10223   10224   10214   10213   10223   10214   10217   10218
   10214   10217   10219   10214   10217   10220   10215   10214   10216
   10215   10214   10217   10216   10214   10217   10217   10220   10221
   10217   10220   10222   10217   10220   10223   10218   10217   10219
   10218   10217   10220   10219   10217   10220   10220   10223   10224
   10221   10220   10222   10221   10220   10223   10222   10220   10223
   10225   10229   10230   10225   10229   10239   10226   10225   10227
   10226   10225   10228   10226   10225   10229   10227   10225   10228
   10227   10225   10229   10228   10225   10229   10229   10230   10231
   10229   10230   10232   10229   10230   10233   10229   10239   10236
   10229   10239   10240   10230   10229   10239   10230   10233   10234
   10230   10233   10235   10230   10233   10236   10231   10230   10232
   10231   10230   10233   10232   10230   10233   10233   10236   10237
   10233   10236   10238   10233   10236   10239   10234   10233   10235
   10234   10233   10236   10235   10233   10236   10236   10239   10240
   10237   10236   10238   10237   10236   10239   10238   10236   10239
   10241   10245   10246   10241   10245   10255   10242   10241   10243
   10242   10241   10244   10242   10241   10245   10243   10241   10244
   10243   10241   10245   10244   10241   10245   10245   10246   10247
   10245   10246   10248   10245   10246   10249   10245   10255   10252
   10245   10255   10256   10246   10245   10255   10246   10249   10250
   10246   10249   10251   10246   10249   10252   10247   10246   10248
   10247   10246   10249   10248   10246   10249   10249   10252   10253
   10249   10252   10254   10249   10252   10255   10250   10249   10251
   10250   10249   10252   10251   10249   10252   10252   10255   10256
   10253   10252   10254   10253   10252   10255   10254   10252   10255
   10257   10261   10262   10257   10261   10271   10258   10257   10259
   10258   10257   10260   10258   10257   10261   10259   10257   10260
   10259   10257   10261   10260   10257   10261   10261   10262   10263
   10261   10262   10264   10261   10262   10265   10261   10271   10268
   10261   10271   10272   10262   10261   10271   10262   10265   10266
   10262   10265   10267   10262   10265   10268   10263   10262   10264
   10263   10262   10265   10264   10262   10265   10265   10268   10269
   10265   10268   10270   10265   10268   10271   10266   10265   10267
   10266   10265   10268   10267   10265   10268   10268   10271   10272
   10269   10268   10270   10269   10268   10271   10270   10268   10271
   10273   10277   10278   10273   10277   10287   10274   10273   10275
   10274   10273   10276   10274   10273   10277   10275   10273   10276
   10275   10273   10277   10276   10273   10277   10277   10278   10279
   10277   10278   10280   10277   10278   10281   10277   10287   10284
   10277   10287   10288   10278   10277   10287   10278   10281   10282
   10278   10281   10283   10278   10281   10284   10279   10278   10280
   10279   10278   10281   10280   10278   10281   10281   10284   10285
   10281   10284   10286   10281   10284   10287   10282   10281   10283
   10282   10281   10284   10283   10281   10284   10284   10287   10288
   10285   10284   10286   10285   10284   10287   10286   10284   10287
   10289   10293   10294   10289   10293   10303   10290   10289   10291
   10290   10289   10292   10290   10289   10293   10291   10289   10292
   10291   10289   10293   10292   10289   10293   10293   10294   10295
   10293   10294   10296   10293   10294   10297   10293   10303   10300
   10293   10303   10304   10294   10293   10303   10294   10297   10298
   10294   10297   10299   10294   10297   10300   10295   10294   10296
   10295   10294   10297   10296   10294   10297   10297   10300   10301
   10297   10300   10302   10297   10300   10303   10298   10297   10299
   10298   10297   10300   10299   10297   10300   10300   10303   10304
   10301   10300   10302   10301   10300   10303   10302   10300   10303
   10305   10309   10310   10305   10309   10319   10306   10305   10307
   10306   10305   10308   10306   10305   10309   10307   10305   10308
   10307   10305   10309   10308   10305   10309   10309   10310   10311
   10309   10310   10312   10309   10310   10313   10309   10319   10316
   10309   10319   10320   10310   10309   10319   10310   10313   10314
   10310   10313   10315   10310   10313   10316   10311   10310   10312
   10311   10310   10313   10312   10310   10313   10313   10316   10317
   10313   10316   10318   10313   10316   10319   10314   10313   10315
   10314   10313   10316   10315   10313   10316   10316   10319   10320
   10317   10316   10318   10317   10316   10319   10318   10316   10319
   10321   10325   10326   10321   10325   10335   10322   10321   10323
   10322   10321   10324   10322   10321   10325   10323   10321   10324
   10323   10321   10325   10324   10321   10325   10325   10326   10327
   10325   10326   10328   10325   10326   10329   10325   10335   10332
   10325   10335   10336   10326   10325   10335   10326   10329   10330
   10326   10329   10331   10326   10329   10332   10327   10326   10328
   10327   10326   10329   10328   10326   10329   10329   10332   10333
   10329   10332   10334   10329   10332   10335   10330   10329   10331
   10330   10329   10332   10331   10329   10332   10332   10335   10336
   10333   10332   10334   10333   10332   10335   10334   10332   10335
   10337   10341   10342   10337   10341   10351   10338   10337   10339
   10338   10337   10340   10338   10337   10341   10339   10337   10340
   10339   10337   10341   10340   10337   10341   10341   10342   10343
   10341   10342   10344   10341   10342   10345   10341   10351   10348
   10341   10351   10352   10342   10341   10351   10342   10345   10346
   10342   10345   10347   10342   10345   10348   10343   10342   10344
   10343   10342   10345   10344   10342   10345   10345   10348   10349
   10345   10348   10350   10345   10348   10351   10346   10345   10347
   10346   10345   10348   10347   10345   10348   10348   10351   10352
   10349   10348   10350   10349   10348   10351   10350   10348   10351
   10353   10357   10358   10353   10357   10367   10354   10353   10355
   10354   10353   10356   10354   10353   10357   10355   10353   10356
   10355   10353   10357   10356   10353   10357   10357   10358   10359
   10357   10358   10360   10357   10358   10361   10357   10367   10364
   10357   10367   10368   10358   10357   10367   10358   10361   10362
   10358   10361   10363   10358   10361   10364   10359   10358   10360
   10359   10358   10361   10360   10358   10361   10361   10364   10365
   10361   10364   10366   10361   10364   10367   10362   10361   10363
   10362   10361   10364   10363   10361   10364   10364   10367   10368
   10365   10364   10366   10365   10364   10367   10366   10364   10367
   10369   10373   10374   10369   10373   10383   10370   10369   10371
   10370   10369   10372   10370   10369   10373   10371   10369   10372
   10371   10369   10373   10372   10369   10373   10373   10374   10375
   10373   10374   10376   10373   10374   10377   10373   10383   10380
   10373   10383   10384   10374   10373   10383   10374   10377   10378
   10374   10377   10379   10374   10377   10380   10375   10374   10376
   10375   10374   10377   10376   10374   10377   10377   10380   10381
   10377   10380   10382   10377   10380   10383   10378   10377   10379
   10378   10377   10380   10379   10377   10380   10380   10383   10384
   10381   10380   10382   10381   10380   10383   10382   10380   10383
   10385   10389   10390   10385   10389   10399   10386   10385   10387
   10386   10385   10388   10386   10385   10389   10387   10385   10388
   10387   10385   10389   10388   10385   10389   10389   10390   10391
   10389   10390   10392   10389   10390   10393   10389   10399   10396
   10389   10399   10400   10390   10389   10399   10390   10393   10394
   10390   10393   10395   10390   10393   10396   10391   10390   10392
   10391   10390   10393   10392   10390   10393   10393   10396   10397
   10393   10396   10398   10393   10396   10399   10394   10393   10395
   10394   10393   10396   10395   10393   10396   10396   10399   10400
   10397   10396   10398   10397   10396   10399   10398   10396   10399
   10401   10405   10406   10401   10405   10415   10402   10401   10403
   10402   10401   10404   10402   10401   10405   10403   10401   10404
   10403   10401   10405   10404   10401   10405   10405   10406   10407
   10405   10406   10408   10405   10406   10409   10405   10415   10412
   10405   10415   10416   10406   10405   10415   10406   10409   10410
   10406   10409   10411   10406   10409   10412   10407   10406   10408
   10407   10406   10409   10408   10406   10409   10409   10412   10413
   10409   10412   10414   10409   10412   10415   10410   10409   10411
   10410   10409   10412   10411   10409   10412   10412   10415   10416
   10413   10412   10414   10413   10412   10415   10414   10412   10415
   10417   10421   10422   10417   10421   10431   10418   10417   10419
   10418   10417   10420   10418   10417   10421   10419   10417   10420
   10419   10417   10421   10420   10417   10421   10421   10422   10423
   10421   10422   10424   10421   10422   10425   10421   10431   10428
   10421   10431   10432   10422   10421   10431   10422   10425   10426
   10422   10425   10427   10422   10425   10428   10423   10422   10424
   10423   10422   10425   10424   10422   10425   10425   10428   10429
   10425   10428   10430   10425   10428   10431   10426   10425   10427
   10426   10425   10428   10427   10425   10428   10428   10431   10432
   10429   10428   10430   10429   10428   10431   10430   10428   10431
   10433   10437   10438   10433   10437   10447   10434   10433   10435
   10434   10433   10436   10434   10433   10437   10435   10433   10436
   10435   10433   10437   10436   10433   10437   10437   10438   10439
   10437   10438   10440   10437   10438   10441   10437   10447   10444
   10437   10447   10448   10438   10437   10447   10438   10441   10442
   10438   10441   10443   10438   10441   10444   10439   10438   10440
   10439   10438   10441   10440   10438   10441   10441   10444   10445
   10441   10444   10446   10441   10444   10447   10442   10441   10443
   10442   10441   10444   10443   10441   10444   10444   10447   10448
   10445   10444   10446   10445   10444   10447   10446   10444   10447
   10449   10453   10454   10449   10453   10463   10450   10449   10451
   10450   10449   10452   10450   10449   10453   10451   10449   10452
   10451   10449   10453   10452   10449   10453   10453   10454   10455
   10453   10454   10456   10453   10454   10457   10453   10463   10460
   10453   10463   10464   10454   10453   10463   10454   10457   10458
   10454   10457   10459   10454   10457   10460   10455   10454   10456
   10455   10454   10457   10456   10454   10457   10457   10460   10461
   10457   10460   10462   10457   10460   10463   10458   10457   10459
   10458   10457   10460   10459   10457   10460   10460   10463   10464
   10461   10460   10462   10461   10460   10463   10462   10460   10463
   10465   10469   10470   10465   10469   10479   10466   10465   10467
   10466   10465   10468   10466   10465   10469   10467   10465   10468
   10467   10465   10469   10468   10465   10469   10469   10470   10471
   10469   10470   10472   10469   10470   10473   10469   10479   10476
   10469   10479   10480   10470   10469   10479   10470   10473   10474
   10470   10473   10475   10470   10473   10476   10471   10470   10472
   10471   10470   10473   10472   10470   10473   10473   10476   10477
   10473   10476   10478   10473   10476   10479   10474   10473   10475
   10474   10473   10476   10475   10473   10476   10476   10479   10480
   10477   10476   10478   10477   10476   10479   10478   10476   10479
   10481   10485   10486   10481   10485   10495   10482   10481   10483
   10482   10481   10484   10482   10481   10485   10483   10481   10484
   10483   10481   10485   10484   10481   10485   10485   10486   10487
   10485   10486   10488   10485   10486   10489   10485   10495   10492
   10485   10495   10496   10486   10485   10495   10486   10489   10490
   10486   10489   10491   10486   10489   10492   10487   10486   10488
   10487   10486   10489   10488   10486   10489   10489   10492   10493
   10489   10492   10494   10489   10492   10495   10490   10489   10491
   10490   10489   10492   10491   10489   10492   10492   10495   10496
   10493   10492   10494   10493   10492   10495   10494   10492   10495
   10497   10501   10502   10497   10501   10511   10498   10497   10499
   10498   10497   10500   10498   10497   10501   10499   10497   10500
   10499   10497   10501   10500   10497   10501   10501   10502   10503
   10501   10502   10504   10501   10502   10505   10501   10511   10508
   10501   10511   10512   10502   10501   10511   10502   10505   10506
   10502   10505   10507   10502   10505   10508   10503   10502   10504
   10503   10502   10505   10504   10502   10505   10505   10508   10509
   10505   10508   10510   10505   10508   10511   10506   10505   10507
   10506   10505   10508   10507   10505   10508   10508   10511   10512
   10509   10508   10510   10509   10508   10511   10510   10508   10511
   10513   10517   10518   10513   10517   10527   10514   10513   10515
   10514   10513   10516   10514   10513   10517   10515   10513   10516
   10515   10513   10517   10516   10513   10517   10517   10518   10519
   10517   10518   10520   10517   10518   10521   10517   10527   10524
   10517   10527   10528   10518   10517   10527   10518   10521   10522
   10518   10521   10523   10518   10521   10524   10519   10518   10520
   10519   10518   10521   10520   10518   10521   10521   10524   10525
   10521   10524   10526   10521   10524   10527   10522   10521   10523
   10522   10521   10524   10523   10521   10524   10524   10527   10528
   10525   10524   10526   10525   10524   10527   10526   10524   10527
   10529   10533   10534   10529   10533   10543   10530   10529   10531
   10530   10529   10532   10530   10529   10533   10531   10529   10532
   10531   10529   10533   10532   10529   10533   10533   10534   10535
   10533   10534   10536   10533   10534   10537   10533   10543   10540
   10533   10543   10544   10534   10533   10543   10534   10537   10538
   10534   10537   10539   10534   10537   10540   10535   10534   10536
   10535   10534   10537   10536   10534   10537   10537   10540   10541
   10537   10540   10542   10537   10540   10543   10538   10537   10539
   10538   10537   10540   10539   10537   10540   10540   10543   10544
   10541   10540   10542   10541   10540   10543   10542   10540   10543
   10545   10549   10550   10545   10549   10559   10546   10545   10547
   10546   10545   10548   10546   10545   10549   10547   10545   10548
   10547   10545   10549   10548   10545   10549   10549   10550   10551
   10549   10550   10552   10549   10550   10553   10549   10559   10556
   10549   10559   10560   10550   10549   10559   10550   10553   10554
   10550   10553   10555   10550   10553   10556   10551   10550   10552
   10551   10550   10553   10552   10550   10553   10553   10556   10557
   10553   10556   10558   10553   10556   10559   10554   10553   10555
   10554   10553   10556   10555   10553   10556   10556   10559   10560
   10557   10556   10558   10557   10556   10559   10558   10556   10559
   10561   10565   10566   10561   10565   10575   10562   10561   10563
   10562   10561   10564   10562   10561   10565   10563   10561   10564
   10563   10561   10565   10564   10561   10565   10565   10566   10567
   10565   10566   10568   10565   10566   10569   10565   10575   10572
   10565   10575   10576   10566   10565   10575   10566   10569   10570
   10566   10569   10571   10566   10569   10572   10567   10566   10568
   10567   10566   10569   10568   10566   10569   10569   10572   10573
   10569   10572   10574   10569   10572   10575   10570   10569   10571
   10570   10569   10572   10571   10569   10572   10572   10575   10576
   10573   10572   10574   10573   10572   10575   10574   10572   10575
   10577   10581   10582   10577   10581   10591   10578   10577   10579
   10578   10577   10580   10578   10577   10581   10579   10577   10580
   10579   10577   10581   10580   10577   10581   10581   10582   10583
   10581   10582   10584   10581   10582   10585   10581   10591   10588
   10581   10591   10592   10582   10581   10591   10582   10585   10586
   10582   10585   10587   10582   10585   10588   10583   10582   10584
   10583   10582   10585   10584   10582   10585   10585   10588   10589
   10585   10588   10590   10585   10588   10591   10586   10585   10587
   10586   10585   10588   10587   10585   10588   10588   10591   10592
   10589   10588   10590   10589   10588   10591   10590   10588   10591
   10593   10597   10598   10593   10597   10607   10594   10593   10595
   10594   10593   10596   10594   10593   10597   10595   10593   10596
   10595   10593   10597   10596   10593   10597   10597   10598   10599
   10597   10598   10600   10597   10598   10601   10597   10607   10604
   10597   10607   10608   10598   10597   10607   10598   10601   10602
   10598   10601   10603   10598   10601   10604   10599   10598   10600
   10599   10598   10601   10600   10598   10601   10601   10604   10605
   10601   10604   10606   10601   10604   10607   10602   10601   10603
   10602   10601   10604   10603   10601   10604   10604   10607   10608
   10605   10604   10606   10605   10604   10607   10606   10604   10607
   10609   10613   10614   10609   10613   10623   10610   10609   10611
   10610   10609   10612   10610   10609   10613   10611   10609   10612
   10611   10609   10613   10612   10609   10613   10613   10614   10615
   10613   10614   10616   10613   10614   10617   10613   10623   10620
   10613   10623   10624   10614   10613   10623   10614   10617   10618
   10614   10617   10619   10614   10617   10620   10615   10614   10616
   10615   10614   10617   10616   10614   10617   10617   10620   10621
   10617   10620   10622   10617   10620   10623   10618   10617   10619
   10618   10617   10620   10619   10617   10620   10620   10623   10624
   10621   10620   10622   10621   10620   10623   10622   10620   10623
   10625   10629   10630   10625   10629   10639   10626   10625   10627
   10626   10625   10628   10626   10625   10629   10627   10625   10628
   10627   10625   10629   10628   10625   10629   10629   10630   10631
   10629   10630   10632   10629   10630   10633   10629   10639   10636
   10629   10639   10640   10630   10629   10639   10630   10633   10634
   10630   10633   10635   10630   10633   10636   10631   10630   10632
   10631   10630   10633   10632   10630   10633   10633   10636   10637
   10633   10636   10638   10633   10636   10639   10634   10633   10635
   10634   10633   10636   10635   10633   10636   10636   10639   10640
   10637   10636   10638   10637   10636   10639   10638   10636   10639
   10641   10645   10646   10641   10645   10655   10642   10641   10643
   10642   10641   10644   10642   10641   10645   10643   10641   10644
   10643   10641   10645   10644   10641   10645   10645   10646   10647
   10645   10646   10648   10645   10646   10649   10645   10655   10652
   10645   10655   10656   10646   10645   10655   10646   10649   10650
   10646   10649   10651   10646   10649   10652   10647   10646   10648
   10647   10646   10649   10648   10646   10649   10649   10652   10653
   10649   10652   10654   10649   10652   10655   10650   10649   10651
   10650   10649   10652   10651   10649   10652   10652   10655   10656
   10653   10652   10654   10653   10652   10655   10654   10652   10655
   10657   10661   10662   10657   10661   10671   10658   10657   10659
   10658   10657   10660   10658   10657   10661   10659   10657   10660
   10659   10657   10661   10660   10657   10661   10661   10662   10663
   10661   10662   10664   10661   10662   10665   10661   10671   10668
   10661   10671   10672   10662   10661   10671   10662   10665   10666
   10662   10665   10667   10662   10665   10668   10663   10662   10664
   10663   10662   10665   10664   10662   10665   10665   10668   10669
   10665   10668   10670   10665   10668   10671   10666   10665   10667
   10666   10665   10668   10667   10665   10668   10668   10671   10672
   10669   10668   10670   10669   10668   10671   10670   10668   10671
   10673   10677   10678   10673   10677   10687   10674   10673   10675
   10674   10673   10676   10674   10673   10677   10675   10673   10676
   10675   10673   10677   10676   10673   10677   10677   10678   10679
   10677   10678   10680   10677   10678   10681   10677   10687   10684
   10677   10687   10688   10678   10677   10687   10678   10681   10682
   10678   10681   10683   10678   10681   10684   10679   10678   10680
   10679   10678   10681   10680   10678   10681   10681   10684   10685
   10681   10684   10686   10681   10684   10687   10682   10681   10683
   10682   10681   10684   10683   10681   10684   10684   10687   10688
   10685   10684   10686   10685   10684   10687   10686   10684   10687
   10689   10693   10694   10689   10693   10703   10690   10689   10691
   10690   10689   10692   10690   10689   10693   10691   10689   10692
   10691   10689   10693   10692   10689   10693   10693   10694   10695
   10693   10694   10696   10693   10694   10697   10693   10703   10700
   10693   10703   10704   10694   10693   10703   10694   10697   10698
   10694   10697   10699   10694   10697   10700   10695   10694   10696
   10695   10694   10697   10696   10694   10697   10697   10700   10701
   10697   10700   10702   10697   10700   10703   10698   10697   10699
   10698   10697   10700   10699   10697   10700   10700   10703   10704
   10701   10700   10702   10701   10700   10703   10702   10700   10703
   10705   10709   10710   10705   10709   10719   10706   10705   10707
   10706   10705   10708   10706   10705   10709   10707   10705   10708
   10707   10705   10709   10708   10705   10709   10709   10710   10711
   10709   10710   10712   10709   10710   10713   10709   10719   10716
   10709   10719   10720   10710   10709   10719   10710   10713   10714
   10710   10713   10715   10710   10713   10716   10711   10710   10712
   10711   10710   10713   10712   10710   10713   10713   10716   10717
   10713   10716   10718   10713   10716   10719   10714   10713   10715
   10714   10713   10716   10715   10713   10716   10716   10719   10720
   10717   10716   10718   10717   10716   10719   10718   10716   10719
   10721   10725   10726   10721   10725   10735   10722   10721   10723
   10722   10721   10724   10722   10721   10725   10723   10721   10724
   10723   10721   10725   10724   10721   10725   10725   10726   10727
   10725   10726   10728   10725   10726   10729   10725   10735   10732
   10725   10735   10736   10726   10725   10735   10726   10729   10730
   10726   10729   10731   10726   10729   10732   10727   10726   10728
   10727   10726   10729   10728   10726   10729   10729   10732   10733
   10729   10732   10734   10729   10732   10735   10730   10729   10731
   10730   10729   10732   10731   10729   10732   10732   10735   10736
   10733   10732   10734   10733   10732   10735   10734   10732   10735
   10737   10741   10742   10737   10741   10751   10738   10737   10739
   10738   10737   10740   10738   10737   10741   10739   10737   10740
   10739   10737   10741   10740   10737   10741   10741   10742   10743
   10741   10742   10744   10741   10742   10745   10741   10751   10748
   10741   10751   10752   10742   10741   10751   10742   10745   10746
   10742   10745   10747   10742   10745   10748   10743   10742   10744
   10743   10742   10745   10744   10742   10745   10745   10748   10749
   10745   10748   10750   10745   10748   10751   10746   10745   10747
   10746   10745   10748   10747   10745   10748   10748   10751   10752
   10749   10748   10750   10749   10748   10751   10750   10748   10751
   10753   10757   10758   10753   10757   10767   10754   10753   10755
   10754   10753   10756   10754   10753   10757   10755   10753   10756
   10755   10753   10757   10756   10753   10757   10757   10758   10759
   10757   10758   10760   10757   10758   10761   10757   10767   10764
   10757   10767   10768   10758   10757   10767   10758   10761   10762
   10758   10761   10763   10758   10761   10764   10759   10758   10760
   10759   10758   10761   10760   10758   10761   10761   10764   10765
   10761   10764   10766   10761   10764   10767   10762   10761   10763
   10762   10761   10764   10763   10761   10764   10764   10767   10768
   10765   10764   10766   10765   10764   10767   10766   10764   10767
   10769   10773   10774   10769   10773   10783   10770   10769   10771
   10770   10769   10772   10770   10769   10773   10771   10769   10772
   10771   10769   10773   10772   10769   10773   10773   10774   10775
   10773   10774   10776   10773   10774   10777   10773   10783   10780
   10773   10783   10784   10774   10773   10783   10774   10777   10778
   10774   10777   10779   10774   10777   10780   10775   10774   10776
   10775   10774   10777   10776   10774   10777   10777   10780   10781
   10777   10780   10782   10777   10780   10783   10778   10777   10779
   10778   10777   10780   10779   10777   10780   10780   10783   10784
   10781   10780   10782   10781   10780   10783   10782   10780   10783
   10785   10789   10790   10785   10789   10799   10786   10785   10787
   10786   10785   10788   10786   10785   10789   10787   10785   10788
   10787   10785   10789   10788   10785   10789   10789   10790   10791
   10789   10790   10792   10789   10790   10793   10789   10799   10796
   10789   10799   10800   10790   10789   10799   10790   10793   10794
   10790   10793   10795   10790   10793   10796   10791   10790   10792
   10791   10790   10793   10792   10790   10793   10793   10796   10797
   10793   10796   10798   10793   10796   10799   10794   10793   10795
   10794   10793   10796   10795   10793   10796   10796   10799   10800
   10797   10796   10798   10797   10796   10799   10798   10796   10799
   10801   10805   10806   10801   10805   10815   10802   10801   10803
   10802   10801   10804   10802   10801   10805   10803   10801   10804
   10803   10801   10805   10804   10801   10805   10805   10806   10807
   10805   10806   10808   10805   10806   10809   10805   10815   10812
   10805   10815   10816   10806   10805   10815   10806   10809   10810
   10806   10809   10811   10806   10809   10812   10807   10806   10808
   10807   10806   10809   10808   10806   10809   10809   10812   10813
   10809   10812   10814   10809   10812   10815   10810   10809   10811
   10810   10809   10812   10811   10809   10812   10812   10815   10816
   10813   10812   10814   10813   10812   10815   10814   10812   10815
   10817   10821   10822   10817   10821   10831   10818   10817   10819
   10818   10817   10820   10818   10817   10821   10819   10817   10820
   10819   10817   10821   10820   10817   10821   10821   10822   10823
   10821   10822   10824   10821   10822   10825   10821   10831   10828
   10821   10831   10832   10822   10821   10831   10822   10825   10826
   10822   10825   10827   10822   10825   10828   10823   10822   10824
   10823   10822   10825   10824   10822   10825   10825   10828   10829
   10825   10828   10830   10825   10828   10831   10826   10825   10827
   10826   10825   10828   10827   10825   10828   10828   10831   10832
   10829   10828   10830   10829   10828   10831   10830   10828   10831
   10833   10837   10838   10833   10837   10847   10834   10833   10835
   10834   10833   10836   10834   10833   10837   10835   10833   10836
   10835   10833   10837   10836   10833   10837   10837   10838   10839
   10837   10838   10840   10837   10838   10841   10837   10847   10844
   10837   10847   10848   10838   10837   10847   10838   10841   10842
   10838   10841   10843   10838   10841   10844   10839   10838   10840
   10839   10838   10841   10840   10838   10841   10841   10844   10845
   10841   10844   10846   10841   10844   10847   10842   10841   10843
   10842   10841   10844   10843   10841   10844   10844   10847   10848
   10845   10844   10846   10845   10844   10847   10846   10844   10847
   10849   10853   10854   10849   10853   10863   10850   10849   10851
   10850   10849   10852   10850   10849   10853   10851   10849   10852
   10851   10849   10853   10852   10849   10853   10853   10854   10855
   10853   10854   10856   10853   10854   10857   10853   10863   10860
   10853   10863   10864   10854   10853   10863   10854   10857   10858
   10854   10857   10859   10854   10857   10860   10855   10854   10856
   10855   10854   10857   10856   10854   10857   10857   10860   10861
   10857   10860   10862   10857   10860   10863   10858   10857   10859
   10858   10857   10860   10859   10857   10860   10860   10863   10864
   10861   10860   10862   10861   10860   10863   10862   10860   10863
   10865   10869   10870   10865   10869   10879   10866   10865   10867
   10866   10865   10868   10866   10865   10869   10867   10865   10868
   10867   10865   10869   10868   10865   10869   10869   10870   10871
   10869   10870   10872   10869   10870   10873   10869   10879   10876
   10869   10879   10880   10870   10869   10879   10870   10873   10874
   10870   10873   10875   10870   10873   10876   10871   10870   10872
   10871   10870   10873   10872   10870   10873   10873   10876   10877
   10873   10876   10878   10873   10876   10879   10874   10873   10875
   10874   10873   10876   10875   10873   10876   10876   10879   10880
   10877   10876   10878   10877   10876   10879   10878   10876   10879
   10881   10885   10886   10881   10885   10895   10882   10881   10883
   10882   10881   10884   10882   10881   10885   10883   10881   10884
   10883   10881   10885   10884   10881   10885   10885   10886   10887
   10885   10886   10888   10885   10886   10889   10885   10895   10892
   10885   10895   10896   10886   10885   10895   10886   10889   10890
   10886   10889   10891   10886   10889   10892   10887   10886   10888
   10887   10886   10889   10888   10886   10889   10889   10892   10893
   10889   10892   10894   10889   10892   10895   10890   10889   10891
   10890   10889   10892   10891   10889   10892   10892   10895   10896
   10893   10892   10894   10893   10892   10895   10894   10892   10895
   10897   10901   10902   10897   10901   10911   10898   10897   10899
   10898   10897   10900   10898   10897   10901   10899   10897   10900
   10899   10897   10901   10900   10897   10901   10901   10902   10903
   10901   10902   10904   10901   10902   10905   10901   10911   10908
   10901   10911   10912   10902   10901   10911   10902   10905   10906
   10902   10905   10907   10902   10905   10908   10903   10902   10904
   10903   10902   10905   10904   10902   10905   10905   10908   10909
   10905   10908   10910   10905   10908   10911   10906   10905   10907
   10906   10905   10908   10907   10905   10908   10908   10911   10912
   10909   10908   10910   10909   10908   10911   10910   10908   10911
   10913   10917   10918   10913   10917   10927   10914   10913   10915
   10914   10913   10916   10914   10913   10917   10915   10913   10916
   10915   10913   10917   10916   10913   10917   10917   10918   10919
   10917   10918   10920   10917   10918   10921   10917   10927   10924
   10917   10927   10928   10918   10917   10927   10918   10921   10922
   10918   10921   10923   10918   10921   10924   10919   10918   10920
   10919   10918   10921   10920   10918   10921   10921   10924   10925
   10921   10924   10926   10921   10924   10927   10922   10921   10923
   10922   10921   10924   10923   10921   10924   10924   10927   10928
   10925   10924   10926   10925   10924   10927   10926   10924   10927
   10929   10933   10934   10929   10933   10943   10930   10929   10931
   10930   10929   10932   10930   10929   10933   10931   10929   10932
   10931   10929   10933   10932   10929   10933   10933   10934   10935
   10933   10934   10936   10933   10934   10937   10933   10943   10940
   10933   10943   10944   10934   10933   10943   10934   10937   10938
   10934   10937   10939   10934   10937   10940   10935   10934   10936
   10935   10934   10937   10936   10934   10937   10937   10940   10941
   10937   10940   10942   10937   10940   10943   10938   10937   10939
   10938   10937   10940   10939   10937   10940   10940   10943   10944
   10941   10940   10942   10941   10940   10943   10942   10940   10943
   10945   10949   10950   10945   10949   10959   10946   10945   10947
   10946   10945   10948   10946   10945   10949   10947   10945   10948
   10947   10945   10949   10948   10945   10949   10949   10950   10951
   10949   10950   10952   10949   10950   10953   10949   10959   10956
   10949   10959   10960   10950   10949   10959   10950   10953   10954
   10950   10953   10955   10950   10953   10956   10951   10950   10952
   10951   10950   10953   10952   10950   10953   10953   10956   10957
   10953   10956   10958   10953   10956   10959   10954   10953   10955
   10954   10953   10956   10955   10953   10956   10956   10959   10960
   10957   10956   10958   10957   10956   10959   10958   10956   10959
   10961   10965   10966   10961   10965   10975   10962   10961   10963
   10962   10961   10964   10962   10961   10965   10963   10961   10964
   10963   10961   10965   10964   10961   10965   10965   10966   10967
   10965   10966   10968   10965   10966   10969   10965   10975   10972
   10965   10975   10976   10966   10965   10975   10966   10969   10970
   10966   10969   10971   10966   10969   10972   10967   10966   10968
   10967   10966   10969   10968   10966   10969   10969   10972   10973
   10969   10972   10974   10969   10972   10975   10970   10969   10971
   10970   10969   10972   10971   10969   10972   10972   10975   10976
   10973   10972   10974   10973   10972   10975   10974   10972   10975
   10977   10981   10982   10977   10981   10991   10978   10977   10979
   10978   10977   10980   10978   10977   10981   10979   10977   10980
   10979   10977   10981   10980   10977   10981   10981   10982   10983
   10981   10982   10984   10981   10982   10985   10981   10991   10988
   10981   10991   10992   10982   10981   10991   10982   10985   10986
   10982   10985   10987   10982   10985   10988   10983   10982   10984
   10983   10982   10985   10984   10982   10985   10985   10988   10989
   10985   10988   10990   10985   10988   10991   10986   10985   10987
   10986   10985   10988   10987   10985   10988   10988   10991   10992
   10989   10988   10990   10989   10988   10991   10990   10988   10991
   10993   10997   10998   10993   10997   11007   10994   10993   10995
   10994   10993   10996   10994   10993   10997   10995   10993   10996
   10995   10993   10997   10996   10993   10997   10997   10998   10999
   10997   10998   11000   10997   10998   11001   10997   11007   11004
   10997   11007   11008   10998   10997   11007   10998   11001   11002
   10998   11001   11003   10998   11001   11004   10999   10998   11000
   10999   10998   11001   11000   10998   11001   11001   11004   11005
   11001   11004   11006   11001   11004   11007   11002   11001   11003
   11002   11001   11004   11003   11001   11004   11004   11007   11008
   11005   11004   11006   11005   11004   11007   11006   11004   11007
   11009   11013   11014   11009   11013   11023   11010   11009   11011
   11010   11009   11012   11010   11009   11013   11011   11009   11012
   11011   11009   11013   11012   11009   11013   11013   11014   11015
   11013   11014   11016   11013   11014   11017   11013   11023   11020
   11013   11023   11024   11014   11013   11023   11014   11017   11018
   11014   11017   11019   11014   11017   11020   11015   11014   11016
   11015   11014   11017   11016   11014   11017   11017   11020   11021
   11017   11020   11022   11017   11020   11023   11018   11017   11019
   11018   11017   11020   11019   11017   11020   11020   11023   11024
   11021   11020   11022   11021   11020   11023   11022   11020   11023
   11025   11029   11030   11025   11029   11039   11026   11025   11027
   11026   11025   11028   11026   11025   11029   11027   11025   11028
   11027   11025   11029   11028   11025   11029   11029   11030   11031
   11029   11030   11032   11029   11030   11033   11029   11039   11036
   11029   11039   11040   11030   11029   11039   11030   11033   11034
   11030   11033   11035   11030   11033   11036   11031   11030   11032
   11031   11030   11033   11032   11030   11033   11033   11036   11037
   11033   11036   11038   11033   11036   11039   11034   11033   11035
   11034   11033   11036   11035   11033   11036   11036   11039   11040
   11037   11036   11038   11037   11036   11039   11038   11036   11039
   11041   11045   11046   11041   11045   11055   11042   11041   11043
   11042   11041   11044   11042   11041   11045   11043   11041   11044
   11043   11041   11045   11044   11041   11045   11045   11046   11047
   11045   11046   11048   11045   11046   11049   11045   11055   11052
   11045   11055   11056   11046   11045   11055   11046   11049   11050
   11046   11049   11051   11046   11049   11052   11047   11046   11048
   11047   11046   11049   11048   11046   11049   11049   11052   11053
   11049   11052   11054   11049   11052   11055   11050   11049   11051
   11050   11049   11052   11051   11049   11052   11052   11055   11056
   11053   11052   11054   11053   11052   11055   11054   11052   11055
   11057   11061   11062   11057   11061   11071   11058   11057   11059
   11058   11057   11060   11058   11057   11061   11059   11057   11060
   11059   11057   11061   11060   11057   11061   11061   11062   11063
   11061   11062   11064   11061   11062   11065   11061   11071   11068
   11061   11071   11072   11062   11061   11071   11062   11065   11066
   11062   11065   11067   11062   11065   11068   11063   11062   11064
   11063   11062   11065   11064   11062   11065   11065   11068   11069
   11065   11068   11070   11065   11068   11071   11066   11065   11067
   11066   11065   11068   11067   11065   11068   11068   11071   11072
   11069   11068   11070   11069   11068   11071   11070   11068   11071
   11073   11077   11078   11073   11077   11087   11074   11073   11075
   11074   11073   11076   11074   11073   11077   11075   11073   11076
   11075   11073   11077   11076   11073   11077   11077   11078   11079
   11077   11078   11080   11077   11078   11081   11077   11087   11084
   11077   11087   11088   11078   11077   11087   11078   11081   11082
   11078   11081   11083   11078   11081   11084   11079   11078   11080
   11079   11078   11081   11080   11078   11081   11081   11084   11085
   11081   11084   11086   11081   11084   11087   11082   11081   11083
   11082   11081   11084   11083   11081   11084   11084   11087   11088
   11085   11084   11086   11085   11084   11087   11086   11084   11087
   11089   11093   11094   11089   11093   11103   11090   11089   11091
   11090   11089   11092   11090   11089   11093   11091   11089   11092
   11091   11089   11093   11092   11089   11093   11093   11094   11095
   11093   11094   11096   11093   11094   11097   11093   11103   11100
   11093   11103   11104   11094   11093   11103   11094   11097   11098
   11094   11097   11099   11094   11097   11100   11095   11094   11096
   11095   11094   11097   11096   11094   11097   11097   11100   11101
   11097   11100   11102   11097   11100   11103   11098   11097   11099
   11098   11097   11100   11099   11097   11100   11100   11103   11104
   11101   11100   11102   11101   11100   11103   11102   11100   11103
   11105   11109   11110   11105   11109   11119   11106   11105   11107
   11106   11105   11108   11106   11105   11109   11107   11105   11108
   11107   11105   11109   11108   11105   11109   11109   11110   11111
   11109   11110   11112   11109   11110   11113   11109   11119   11116
   11109   11119   11120   11110   11109   11119   11110   11113   11114
   11110   11113   11115   11110   11113   11116   11111   11110   11112
   11111   11110   11113   11112   11110   11113   11113   11116   11117
   11113   11116   11118   11113   11116   11119   11114   11113   11115
   11114   11113   11116   11115   11113   11116   11116   11119   11120
   11117   11116   11118   11117   11116   11119   11118   11116   11119
   11121   11125   11126   11121   11125   11135   11122   11121   11123
   11122   11121   11124   11122   11121   11125   11123   11121   11124
   11123   11121   11125   11124   11121   11125   11125   11126   11127
   11125   11126   11128   11125   11126   11129   11125   11135   11132
   11125   11135   11136   11126   11125   11135   11126   11129   11130
   11126   11129   11131   11126   11129   11132   11127   11126   11128
   11127   11126   11129   11128   11126   11129   11129   11132   11133
   11129   11132   11134   11129   11132   11135   11130   11129   11131
   11130   11129   11132   11131   11129   11132   11132   11135   11136
   11133   11132   11134   11133   11132   11135   11134   11132   11135
   11137   11141   11142   11137   11141   11151   11138   11137   11139
   11138   11137   11140   11138   11137   11141   11139   11137   11140
   11139   11137   11141   11140   11137   11141   11141   11142   11143
   11141   11142   11144   11141   11142   11145   11141   11151   11148
   11141   11151   11152   11142   11141   11151   11142   11145   11146
   11142   11145   11147   11142   11145   11148   11143   11142   11144
   11143   11142   11145   11144   11142   11145   11145   11148   11149
   11145   11148   11150   11145   11148   11151   11146   11145   11147
   11146   11145   11148   11147   11145   11148   11148   11151   11152
   11149   11148   11150   11149   11148   11151   11150   11148   11151
   11153   11157   11158   11153   11157   11167   11154   11153   11155
   11154   11153   11156   11154   11153   11157   11155   11153   11156
   11155   11153   11157   11156   11153   11157   11157   11158   11159
   11157   11158   11160   11157   11158   11161   11157   11167   11164
   11157   11167   11168   11158   11157   11167   11158   11161   11162
   11158   11161   11163   11158   11161   11164   11159   11158   11160
   11159   11158   11161   11160   11158   11161   11161   11164   11165
   11161   11164   11166   11161   11164   11167   11162   11161   11163
   11162   11161   11164   11163   11161   11164   11164   11167   11168
   11165   11164   11166   11165   11164   11167   11166   11164   11167
   11169   11173   11174   11169   11173   11183   11170   11169   11171
   11170   11169   11172   11170   11169   11173   11171   11169   11172
   11171   11169   11173   11172   11169   11173   11173   11174   11175
   11173   11174   11176   11173   11174   11177   11173   11183   11180
   11173   11183   11184   11174   11173   11183   11174   11177   11178
   11174   11177   11179   11174   11177   11180   11175   11174   11176
   11175   11174   11177   11176   11174   11177   11177   11180   11181
   11177   11180   11182   11177   11180   11183   11178   11177   11179
   11178   11177   11180   11179   11177   11180   11180   11183   11184
   11181   11180   11182   11181   11180   11183   11182   11180   11183
   11185   11189   11190   11185   11189   11199   11186   11185   11187
   11186   11185   11188   11186   11185   11189   11187   11185   11188
   11187   11185   11189   11188   11185   11189   11189   11190   11191
   11189   11190   11192   11189   11190   11193   11189   11199   11196
   11189   11199   11200   11190   11189   11199   11190   11193   11194
   11190   11193   11195   11190   11193   11196   11191   11190   11192
   11191   11190   11193   11192   11190   11193   11193   11196   11197
   11193   11196   11198   11193   11196   11199   11194   11193   11195
   11194   11193   11196   11195   11193   11196   11196   11199   11200
   11197   11196   11198   11197   11196   11199   11198   11196   11199
   11201   11205   11206   11201   11205   11215   11202   11201   11203
   11202   11201   11204   11202   11201   11205   11203   11201   11204
   11203   11201   11205   11204   11201   11205   11205   11206   11207
   11205   11206   11208   11205   11206   11209   11205   11215   11212
   11205   11215   11216   11206   11205   11215   11206   11209   11210
   11206   11209   11211   11206   11209   11212   11207   11206   11208
   11207   11206   11209   11208   11206   11209   11209   11212   11213
   11209   11212   11214   11209   11212   11215   11210   11209   11211
   11210   11209   11212   11211   11209   11212   11212   11215   11216
   11213   11212   11214   11213   11212   11215   11214   11212   11215
   11217   11221   11222   11217   11221   11231   11218   11217   11219
   11218   11217   11220   11218   11217   11221   11219   11217   11220
   11219   11217   11221   11220   11217   11221   11221   11222   11223
   11221   11222   11224   11221   11222   11225   11221   11231   11228
   11221   11231   11232   11222   11221   11231   11222   11225   11226
   11222   11225   11227   11222   11225   11228   11223   11222   11224
   11223   11222   11225   11224   11222   11225   11225   11228   11229
   11225   11228   11230   11225   11228   11231   11226   11225   11227
   11226   11225   11228   11227   11225   11228   11228   11231   11232
   11229   11228   11230   11229   11228   11231   11230   11228   11231
   11233   11237   11238   11233   11237   11247   11234   11233   11235
   11234   11233   11236   11234   11233   11237   11235   11233   11236
   11235   11233   11237   11236   11233   11237   11237   11238   11239
   11237   11238   11240   11237   11238   11241   11237   11247   11244
   11237   11247   11248   11238   11237   11247   11238   11241   11242
   11238   11241   11243   11238   11241   11244   11239   11238   11240
   11239   11238   11241   11240   11238   11241   11241   11244   11245
   11241   11244   11246   11241   11244   11247   11242   11241   11243
   11242   11241   11244   11243   11241   11244   11244   11247   11248
   11245   11244   11246   11245   11244   11247   11246   11244   11247
   11249   11253   11254   11249   11253   11263   11250   11249   11251
   11250   11249   11252   11250   11249   11253   11251   11249   11252
   11251   11249   11253   11252   11249   11253   11253   11254   11255
   11253   11254   11256   11253   11254   11257   11253   11263   11260
   11253   11263   11264   11254   11253   11263   11254   11257   11258
   11254   11257   11259   11254   11257   11260   11255   11254   11256
   11255   11254   11257   11256   11254   11257   11257   11260   11261
   11257   11260   11262   11257   11260   11263   11258   11257   11259
   11258   11257   11260   11259   11257   11260   11260   11263   11264
   11261   11260   11262   11261   11260   11263   11262   11260   11263
   11265   11269   11270   11265   11269   11279   11266   11265   11267
   11266   11265   11268   11266   11265   11269   11267   11265   11268
   11267   11265   11269   11268   11265   11269   11269   11270   11271
   11269   11270   11272   11269   11270   11273   11269   11279   11276
   11269   11279   11280   11270   11269   11279   11270   11273   11274
   11270   11273   11275   11270   11273   11276   11271   11270   11272
   11271   11270   11273   11272   11270   11273   11273   11276   11277
   11273   11276   11278   11273   11276   11279   11274   11273   11275
   11274   11273   11276   11275   11273   11276   11276   11279   11280
   11277   11276   11278   11277   11276   11279   11278   11276   11279
   11281   11285   11286   11281   11285   11295   11282   11281   11283
   11282   11281   11284   11282   11281   11285   11283   11281   11284
   11283   11281   11285   11284   11281   11285   11285   11286   11287
   11285   11286   11288   11285   11286   11289   11285   11295   11292
   11285   11295   11296   11286   11285   11295   11286   11289   11290
   11286   11289   11291   11286   11289   11292   11287   11286   11288
   11287   11286   11289   11288   11286   11289   11289   11292   11293
   11289   11292   11294   11289   11292   11295   11290   11289   11291
   11290   11289   11292   11291   11289   11292   11292   11295   11296
   11293   11292   11294   11293   11292   11295   11294   11292   11295
   11297   11301   11302   11297   11301   11311   11298   11297   11299
   11298   11297   11300   11298   11297   11301   11299   11297   11300
   11299   11297   11301   11300   11297   11301   11301   11302   11303
   11301   11302   11304   11301   11302   11305   11301   11311   11308
   11301   11311   11312   11302   11301   11311   11302   11305   11306
   11302   11305   11307   11302   11305   11308   11303   11302   11304
   11303   11302   11305   11304   11302   11305   11305   11308   11309
   11305   11308   11310   11305   11308   11311   11306   11305   11307
   11306   11305   11308   11307   11305   11308   11308   11311   11312
   11309   11308   11310   11309   11308   11311   11310   11308   11311
   11313   11317   11318   11313   11317   11327   11314   11313   11315
   11314   11313   11316   11314   11313   11317   11315   11313   11316
   11315   11313   11317   11316   11313   11317   11317   11318   11319
   11317   11318   11320   11317   11318   11321   11317   11327   11324
   11317   11327   11328   11318   11317   11327   11318   11321   11322
   11318   11321   11323   11318   11321   11324   11319   11318   11320
   11319   11318   11321   11320   11318   11321   11321   11324   11325
   11321   11324   11326   11321   11324   11327   11322   11321   11323
   11322   11321   11324   11323   11321   11324   11324   11327   11328
   11325   11324   11326   11325   11324   11327   11326   11324   11327
   11329   11333   11334   11329   11333   11343   11330   11329   11331
   11330   11329   11332   11330   11329   11333   11331   11329   11332
   11331   11329   11333   11332   11329   11333   11333   11334   11335
   11333   11334   11336   11333   11334   11337   11333   11343   11340
   11333   11343   11344   11334   11333   11343   11334   11337   11338
   11334   11337   11339   11334   11337   11340   11335   11334   11336
   11335   11334   11337   11336   11334   11337   11337   11340   11341
   11337   11340   11342   11337   11340   11343   11338   11337   11339
   11338   11337   11340   11339   11337   11340   11340   11343   11344
   11341   11340   11342   11341   11340   11343   11342   11340   11343
   11345   11349   11350   11345   11349   11359   11346   11345   11347
   11346   11345   11348   11346   11345   11349   11347   11345   11348
   11347   11345   11349   11348   11345   11349   11349   11350   11351
   11349   11350   11352   11349   11350   11353   11349   11359   11356
   11349   11359   11360   11350   11349   11359   11350   11353   11354
   11350   11353   11355   11350   11353   11356   11351   11350   11352
   11351   11350   11353   11352   11350   11353   11353   11356   11357
   11353   11356   11358   11353   11356   11359   11354   11353   11355
   11354   11353   11356   11355   11353   11356   11356   11359   11360
   11357   11356   11358   11357   11356   11359   11358   11356   11359
   11361   11365   11366   11361   11365   11375   11362   11361   11363
   11362   11361   11364   11362   11361   11365   11363   11361   11364
   11363   11361   11365   11364   11361   11365   11365   11366   11367
   11365   11366   11368   11365   11366   11369   11365   11375   11372
   11365   11375   11376   11366   11365   11375   11366   11369   11370
   11366   11369   11371   11366   11369   11372   11367   11366   11368
   11367   11366   11369   11368   11366   11369   11369   11372   11373
   11369   11372   11374   11369   11372   11375   11370   11369   11371
   11370   11369   11372   11371   11369   11372   11372   11375   11376
   11373   11372   11374   11373   11372   11375   11374   11372   11375
   11377   11381   11382   11377   11381   11391   11378   11377   11379
   11378   11377   11380   11378   11377   11381   11379   11377   11380
   11379   11377   11381   11380   11377   11381   11381   11382   11383
   11381   11382   11384   11381   11382   11385   11381   11391   11388
   11381   11391   11392   11382   11381   11391   11382   11385   11386
   11382   11385   11387   11382   11385   11388   11383   11382   11384
   11383   11382   11385   11384   11382   11385   11385   11388   11389
   11385   11388   11390   11385   11388   11391   11386   11385   11387
   11386   11385   11388   11387   11385   11388   11388   11391   11392
   11389   11388   11390   11389   11388   11391   11390   11388   11391
   11393   11397   11398   11393   11397   11407   11394   11393   11395
   11394   11393   11396   11394   11393   11397   11395   11393   11396
   11395   11393   11397   11396   11393   11397   11397   11398   11399
   11397   11398   11400   11397   11398   11401   11397   11407   11404
   11397   11407   11408   11398   11397   11407   11398   11401   11402
   11398   11401   11403   11398   11401   11404   11399   11398   11400
   11399   11398   11401   11400   11398   11401   11401   11404   11405
   11401   11404   11406   11401   11404   11407   11402   11401   11403
   11402   11401   11404   11403   11401   11404   11404   11407   11408
   11405   11404   11406   11405   11404   11407   11406   11404   11407
   11409   11413   11414   11409   11413   11423   11410   11409   11411
   11410   11409   11412   11410   11409   11413   11411   11409   11412
   11411   11409   11413   11412   11409   11413   11413   11414   11415
   11413   11414   11416   11413   11414   11417   11413   11423   11420
   11413   11423   11424   11414   11413   11423   11414   11417   11418
   11414   11417   11419   11414   11417   11420   11415   11414   11416
   11415   11414   11417   11416   11414   11417   11417   11420   11421
   11417   11420   11422   11417   11420   11423   11418   11417   11419
   11418   11417   11420   11419   11417   11420   11420   11423   11424
   11421   11420   11422   11421   11420   11423   11422   11420   11423
   11425   11429   11430   11425   11429   11439   11426   11425   11427
   11426   11425   11428   11426   11425   11429   11427   11425   11428
   11427   11425   11429   11428   11425   11429   11429   11430   11431
   11429   11430   11432   11429   11430   11433   11429   11439   11436
   11429   11439   11440   11430   11429   11439   11430   11433   11434
   11430   11433   11435   11430   11433   11436   11431   11430   11432
   11431   11430   11433   11432   11430   11433   11433   11436   11437
   11433   11436   11438   11433   11436   11439   11434   11433   11435
   11434   11433   11436   11435   11433   11436   11436   11439   11440
   11437   11436   11438   11437   11436   11439   11438   11436   11439
   11441   11445   11446   11441   11445   11455   11442   11441   11443
   11442   11441   11444   11442   11441   11445   11443   11441   11444
   11443   11441   11445   11444   11441   11445   11445   11446   11447
   11445   11446   11448   11445   11446   11449   11445   11455   11452
   11445   11455   11456   11446   11445   11455   11446   11449   11450
   11446   11449   11451   11446   11449   11452   11447   11446   11448
   11447   11446   11449   11448   11446   11449   11449   11452   11453
   11449   11452   11454   11449   11452   11455   11450   11449   11451
   11450   11449   11452   11451   11449   11452   11452   11455   11456
   11453   11452   11454   11453   11452   11455   11454   11452   11455
   11457   11461   11462   11457   11461   11471   11458   11457   11459
   11458   11457   11460   11458   11457   11461   11459   11457   11460
   11459   11457   11461   11460   11457   11461   11461   11462   11463
   11461   11462   11464   11461   11462   11465   11461   11471   11468
   11461   11471   11472   11462   11461   11471   11462   11465   11466
   11462   11465   11467   11462   11465   11468   11463   11462   11464
   11463   11462   11465   11464   11462   11465   11465   11468   11469
   11465   11468   11470   11465   11468   11471   11466   11465   11467
   11466   11465   11468   11467   11465   11468   11468   11471   11472
   11469   11468   11470   11469   11468   11471   11470   11468   11471
   11473   11477   11478   11473   11477   11487   11474   11473   11475
   11474   11473   11476   11474   11473   11477   11475   11473   11476
   11475   11473   11477   11476   11473   11477   11477   11478   11479
   11477   11478   11480   11477   11478   11481   11477   11487   11484
   11477   11487   11488   11478   11477   11487   11478   11481   11482
   11478   11481   11483   11478   11481   11484   11479   11478   11480
   11479   11478   11481   11480   11478   11481   11481   11484   11485
   11481   11484   11486   11481   11484   11487   11482   11481   11483
   11482   11481   11484   11483   11481   11484   11484   11487   11488
   11485   11484   11486   11485   11484   11487   11486   11484   11487
   11489   11493   11494   11489   11493   11503   11490   11489   11491
   11490   11489   11492   11490   11489   11493   11491   11489   11492
   11491   11489   11493   11492   11489   11493   11493   11494   11495
   11493   11494   11496   11493   11494   11497   11493   11503   11500
   11493   11503   11504   11494   11493   11503   11494   11497   11498
   11494   11497   11499   11494   11497   11500   11495   11494   11496
   11495   11494   11497   11496   11494   11497   11497   11500   11501
   11497   11500   11502   11497   11500   11503   11498   11497   11499
   11498   11497   11500   11499   11497   11500   11500   11503   11504
   11501   11500   11502   11501   11500   11503   11502   11500   11503
   11505   11509   11510   11505   11509   11519   11506   11505   11507
   11506   11505   11508   11506   11505   11509   11507   11505   11508
   11507   11505   11509   11508   11505   11509   11509   11510   11511
   11509   11510   11512   11509   11510   11513   11509   11519   11516
   11509   11519   11520   11510   11509   11519   11510   11513   11514
   11510   11513   11515   11510   11513   11516   11511   11510   11512
   11511   11510   11513   11512   11510   11513   11513   11516   11517
   11513   11516   11518   11513   11516   11519   11514   11513   11515
   11514   11513   11516   11515   11513   11516   11516   11519   11520
   11517   11516   11518   11517   11516   11519   11518   11516   11519
   11521   11525   11526   11521   11525   11535   11522   11521   11523
   11522   11521   11524   11522   11521   11525   11523   11521   11524
   11523   11521   11525   11524   11521   11525   11525   11526   11527
   11525   11526   11528   11525   11526   11529   11525   11535   11532
   11525   11535   11536   11526   11525   11535   11526   11529   11530
   11526   11529   11531   11526   11529   11532   11527   11526   11528
   11527   11526   11529   11528   11526   11529   11529   11532   11533
   11529   11532   11534   11529   11532   11535   11530   11529   11531
   11530   11529   11532   11531   11529   11532   11532   11535   11536
   11533   11532   11534   11533   11532   11535   11534   11532   11535
   11537   11541   11542   11537   11541   11551   11538   11537   11539
   11538   11537   11540   11538   11537   11541   11539   11537   11540
   11539   11537   11541   11540   11537   11541   11541   11542   11543
   11541   11542   11544   11541   11542   11545   11541   11551   11548
   11541   11551   11552   11542   11541   11551   11542   11545   11546
   11542   11545   11547   11542   11545   11548   11543   11542   11544
   11543   11542   11545   11544   11542   11545   11545   11548   11549
   11545   11548   11550   11545   11548   11551   11546   11545   11547
   11546   11545   11548   11547   11545   11548   11548   11551   11552
   11549   11548   11550   11549   11548   11551   11550   11548   11551
   11553   11557   11558   11553   11557   11567   11554   11553   11555
   11554   11553   11556   11554   11553   11557   11555   11553   11556
   11555   11553   11557   11556   11553   11557   11557   11558   11559
   11557   11558   11560   11557   11558   11561   11557   11567   11564
   11557   11567   11568   11558   11557   11567   11558   11561   11562
   11558   11561   11563   11558   11561   11564   11559   11558   11560
   11559   11558   11561   11560   11558   11561   11561   11564   11565
   11561   11564   11566   11561   11564   11567   11562   11561   11563
   11562   11561   11564   11563   11561   11564   11564   11567   11568
   11565   11564   11566   11565   11564   11567   11566   11564   11567
   11569   11573   11574   11569   11573   11583   11570   11569   11571
   11570   11569   11572   11570   11569   11573   11571   11569   11572
   11571   11569   11573   11572   11569   11573   11573   11574   11575
   11573   11574   11576   11573   11574   11577   11573   11583   11580
   11573   11583   11584   11574   11573   11583   11574   11577   11578
   11574   11577   11579   11574   11577   11580   11575   11574   11576
   11575   11574   11577   11576   11574   11577   11577   11580   11581
   11577   11580   11582   11577   11580   11583   11578   11577   11579
   11578   11577   11580   11579   11577   11580   11580   11583   11584
   11581   11580   11582   11581   11580   11583   11582   11580   11583
   11585   11589   11590   11585   11589   11599   11586   11585   11587
   11586   11585   11588   11586   11585   11589   11587   11585   11588
   11587   11585   11589   11588   11585   11589   11589   11590   11591
   11589   11590   11592   11589   11590   11593   11589   11599   11596
   11589   11599   11600   11590   11589   11599   11590   11593   11594
   11590   11593   11595   11590   11593   11596   11591   11590   11592
   11591   11590   11593   11592   11590   11593   11593   11596   11597
   11593   11596   11598   11593   11596   11599   11594   11593   11595
   11594   11593   11596   11595   11593   11596   11596   11599   11600
   11597   11596   11598   11597   11596   11599   11598   11596   11599
   11601   11605   11606   11601   11605   11615   11602   11601   11603
   11602   11601   11604   11602   11601   11605   11603   11601   11604
   11603   11601   11605   11604   11601   11605   11605   11606   11607
   11605   11606   11608   11605   11606   11609   11605   11615   11612
   11605   11615   11616   11606   11605   11615   11606   11609   11610
   11606   11609   11611   11606   11609   11612   11607   11606   11608
   11607   11606   11609   11608   11606   11609   11609   11612   11613
   11609   11612   11614   11609   11612   11615   11610   11609   11611
   11610   11609   11612   11611   11609   11612   11612   11615   11616
   11613   11612   11614   11613   11612   11615   11614   11612   11615
   11617   11621   11622   11617   11621   11631   11618   11617   11619
   11618   11617   11620   11618   11617   11621   11619   11617   11620
   11619   11617   11621   11620   11617   11621   11621   11622   11623
   11621   11622   11624   11621   11622   11625   11621   11631   11628
   11621   11631   11632   11622   11621   11631   11622   11625   11626
   11622   11625   11627   11622   11625   11628   11623   11622   11624
   11623   11622   11625   11624   11622   11625   11625   11628   11629
   11625   11628   11630   11625   11628   11631   11626   11625   11627
   11626   11625   11628   11627   11625   11628   11628   11631   11632
   11629   11628   11630   11629   11628   11631   11630   11628   11631
   11633   11637   11638   11633   11637   11647   11634   11633   11635
   11634   11633   11636   11634   11633   11637   11635   11633   11636
   11635   11633   11637   11636   11633   11637   11637   11638   11639
   11637   11638   11640   11637   11638   11641   11637   11647   11644
   11637   11647   11648   11638   11637   11647   11638   11641   11642
   11638   11641   11643   11638   11641   11644   11639   11638   11640
   11639   11638   11641   11640   11638   11641   11641   11644   11645
   11641   11644   11646   11641   11644   11647   11642   11641   11643
   11642   11641   11644   11643   11641   11644   11644   11647   11648
   11645   11644   11646   11645   11644   11647   11646   11644   11647
   11649   11653   11654   11649   11653   11663   11650   11649   11651
   11650   11649   11652   11650   11649   11653   11651   11649   11652
   11651   11649   11653   11652   11649   11653   11653   11654   11655
   11653   11654   11656   11653   11654   11657   11653   11663   11660
   11653   11663   11664   11654   11653   11663   11654   11657   11658
   11654   11657   11659   11654   11657   11660   11655   11654   11656
   11655   11654   11657   11656   11654   11657   11657   11660   11661
   11657   11660   11662   11657   11660   11663   11658   11657   11659
   11658   11657   11660   11659   11657   11660   11660   11663   11664
   11661   11660   11662   11661   11660   11663   11662   11660   11663
   11665   11669   11670   11665   11669   11679   11666   11665   11667
   11666   11665   11668   11666   11665   11669   11667   11665   11668
   11667   11665   11669   11668   11665   11669   11669   11670   11671
   11669   11670   11672   11669   11670   11673   11669   11679   11676
   11669   11679   11680   11670   11669   11679   11670   11673   11674
   11670   11673   11675   11670   11673   11676   11671   11670   11672
   11671   11670   11673   11672   11670   11673   11673   11676   11677
   11673   11676   11678   11673   11676   11679   11674   11673   11675
   11674   11673   11676   11675   11673   11676   11676   11679   11680
   11677   11676   11678   11677   11676   11679   11678   11676   11679
   11681   11685   11686   11681   11685   11695   11682   11681   11683
   11682   11681   11684   11682   11681   11685   11683   11681   11684
   11683   11681   11685   11684   11681   11685   11685   11686   11687
   11685   11686   11688   11685   11686   11689   11685   11695   11692
   11685   11695   11696   11686   11685   11695   11686   11689   11690
   11686   11689   11691   11686   11689   11692   11687   11686   11688
   11687   11686   11689   11688   11686   11689   11689   11692   11693
   11689   11692   11694   11689   11692   11695   11690   11689   11691
   11690   11689   11692   11691   11689   11692   11692   11695   11696
   11693   11692   11694   11693   11692   11695   11694   11692   11695
   11697   11701   11702   11697   11701   11711   11698   11697   11699
   11698   11697   11700   11698   11697   11701   11699   11697   11700
   11699   11697   11701   11700   11697   11701   11701   11702   11703
   11701   11702   11704   11701   11702   11705   11701   11711   11708
   11701   11711   11712   11702   11701   11711   11702   11705   11706
   11702   11705   11707   11702   11705   11708   11703   11702   11704
   11703   11702   11705   11704   11702   11705   11705   11708   11709
   11705   11708   11710   11705   11708   11711   11706   11705   11707
   11706   11705   11708   11707   11705   11708   11708   11711   11712
   11709   11708   11710   11709   11708   11711   11710   11708   11711
   11713   11717   11718   11713   11717   11727   11714   11713   11715
   11714   11713   11716   11714   11713   11717   11715   11713   11716
   11715   11713   11717   11716   11713   11717   11717   11718   11719
   11717   11718   11720   11717   11718   11721   11717   11727   11724
   11717   11727   11728   11718   11717   11727   11718   11721   11722
   11718   11721   11723   11718   11721   11724   11719   11718   11720
   11719   11718   11721   11720   11718   11721   11721   11724   11725
   11721   11724   11726   11721   11724   11727   11722   11721   11723
   11722   11721   11724   11723   11721   11724   11724   11727   11728
   11725   11724   11726   11725   11724   11727   11726   11724   11727
   11729   11733   11734   11729   11733   11743   11730   11729   11731
   11730   11729   11732   11730   11729   11733   11731   11729   11732
   11731   11729   11733   11732   11729   11733   11733   11734   11735
   11733   11734   11736   11733   11734   11737   11733   11743   11740
   11733   11743   11744   11734   11733   11743   11734   11737   11738
   11734   11737   11739   11734   11737   11740   11735   11734   11736
   11735   11734   11737   11736   11734   11737   11737   11740   11741
   11737   11740   11742   11737   11740   11743   11738   11737   11739
   11738   11737   11740   11739   11737   11740   11740   11743   11744
   11741   11740   11742   11741   11740   11743   11742   11740   11743
   11745   11749   11750   11745   11749   11759   11746   11745   11747
   11746   11745   11748   11746   11745   11749   11747   11745   11748
   11747   11745   11749   11748   11745   11749   11749   11750   11751
   11749   11750   11752   11749   11750   11753   11749   11759   11756
   11749   11759   11760   11750   11749   11759   11750   11753   11754
   11750   11753   11755   11750   11753   11756   11751   11750   11752
   11751   11750   11753   11752   11750   11753   11753   11756   11757
   11753   11756   11758   11753   11756   11759   11754   11753   11755
   11754   11753   11756   11755   11753   11756   11756   11759   11760
   11757   11756   11758   11757   11756   11759   11758   11756   11759
   11761   11765   11766   11761   11765   11775   11762   11761   11763
   11762   11761   11764   11762   11761   11765   11763   11761   11764
   11763   11761   11765   11764   11761   11765   11765   11766   11767
   11765   11766   11768   11765   11766   11769   11765   11775   11772
   11765   11775   11776   11766   11765   11775   11766   11769   11770
   11766   11769   11771   11766   11769   11772   11767   11766   11768
   11767   11766   11769   11768   11766   11769   11769   11772   11773
   11769   11772   11774   11769   11772   11775   11770   11769   11771
   11770   11769   11772   11771   11769   11772   11772   11775   11776
   11773   11772   11774   11773   11772   11775   11774   11772   11775
   11777   11781   11782   11777   11781   11791   11778   11777   11779
   11778   11777   11780   11778   11777   11781   11779   11777   11780
   11779   11777   11781   11780   11777   11781   11781   11782   11783
   11781   11782   11784   11781   11782   11785   11781   11791   11788
   11781   11791   11792   11782   11781   11791   11782   11785   11786
   11782   11785   11787   11782   11785   11788   11783   11782   11784
   11783   11782   11785   11784   11782   11785   11785   11788   11789
   11785   11788   11790   11785   11788   11791   11786   11785   11787
   11786   11785   11788   11787   11785   11788   11788   11791   11792
   11789   11788   11790   11789   11788   11791   11790   11788   11791
   11793   11797   11798   11793   11797   11807   11794   11793   11795
   11794   11793   11796   11794   11793   11797   11795   11793   11796
   11795   11793   11797   11796   11793   11797   11797   11798   11799
   11797   11798   11800   11797   11798   11801   11797   11807   11804
   11797   11807   11808   11798   11797   11807   11798   11801   11802
   11798   11801   11803   11798   11801   11804   11799   11798   11800
   11799   11798   11801   11800   11798   11801   11801   11804   11805
   11801   11804   11806   11801   11804   11807   11802   11801   11803
   11802   11801   11804   11803   11801   11804   11804   11807   11808
   11805   11804   11806   11805   11804   11807   11806   11804   11807
   11809   11813   11814   11809   11813   11823   11810   11809   11811
   11810   11809   11812   11810   11809   11813   11811   11809   11812
   11811   11809   11813   11812   11809   11813   11813   11814   11815
   11813   11814   11816   11813   11814   11817   11813   11823   11820
   11813   11823   11824   11814   11813   11823   11814   11817   11818
   11814   11817   11819   11814   11817   11820   11815   11814   11816
   11815   11814   11817   11816   11814   11817   11817   11820   11821
   11817   11820   11822   11817   11820   11823   11818   11817   11819
   11818   11817   11820   11819   11817   11820   11820   11823   11824
   11821   11820   11822   11821   11820   11823   11822   11820   11823
   11825   11829   11830   11825   11829   11839   11826   11825   11827
   11826   11825   11828   11826   11825   11829   11827   11825   11828
   11827   11825   11829   11828   11825   11829   11829   11830   11831
   11829   11830   11832   11829   11830   11833   11829   11839   11836
   11829   11839   11840   11830   11829   11839   11830   11833   11834
   11830   11833   11835   11830   11833   11836   11831   11830   11832
   11831   11830   11833   11832   11830   11833   11833   11836   11837
   11833   11836   11838   11833   11836   11839   11834   11833   11835
   11834   11833   11836   11835   11833   11836   11836   11839   11840
   11837   11836   11838   11837   11836   11839   11838   11836   11839
   11841   11845   11846   11841   11845   11855   11842   11841   11843
   11842   11841   11844   11842   11841   11845   11843   11841   11844
   11843   11841   11845   11844   11841   11845   11845   11846   11847
   11845   11846   11848   11845   11846   11849   11845   11855   11852
   11845   11855   11856   11846   11845   11855   11846   11849   11850
   11846   11849   11851   11846   11849   11852   11847   11846   11848
   11847   11846   11849   11848   11846   11849   11849   11852   11853
   11849   11852   11854   11849   11852   11855   11850   11849   11851
   11850   11849   11852   11851   11849   11852   11852   11855   11856
   11853   11852   11854   11853   11852   11855   11854   11852   11855
   11857   11861   11862   11857   11861   11871   11858   11857   11859
   11858   11857   11860   11858   11857   11861   11859   11857   11860
   11859   11857   11861   11860   11857   11861   11861   11862   11863
   11861   11862   11864   11861   11862   11865   11861   11871   11868
   11861   11871   11872   11862   11861   11871   11862   11865   11866
   11862   11865   11867   11862   11865   11868   11863   11862   11864
   11863   11862   11865   11864   11862   11865   11865   11868   11869
   11865   11868   11870   11865   11868   11871   11866   11865   11867
   11866   11865   11868   11867   11865   11868   11868   11871   11872
   11869   11868   11870   11869   11868   11871   11870   11868   11871
   11873   11877   11878   11873   11877   11887   11874   11873   11875
   11874   11873   11876   11874   11873   11877   11875   11873   11876
   11875   11873   11877   11876   11873   11877   11877   11878   11879
   11877   11878   11880   11877   11878   11881   11877   11887   11884
   11877   11887   11888   11878   11877   11887   11878   11881   11882
   11878   11881   11883   11878   11881   11884   11879   11878   11880
   11879   11878   11881   11880   11878   11881   11881   11884   11885
   11881   11884   11886   11881   11884   11887   11882   11881   11883
   11882   11881   11884   11883   11881   11884   11884   11887   11888
   11885   11884   11886   11885   11884   11887   11886   11884   11887
   11889   11893   11894   11889   11893   11903   11890   11889   11891
   11890   11889   11892   11890   11889   11893   11891   11889   11892
   11891   11889   11893   11892   11889   11893   11893   11894   11895
   11893   11894   11896   11893   11894   11897   11893   11903   11900
   11893   11903   11904   11894   11893   11903   11894   11897   11898
   11894   11897   11899   11894   11897   11900   11895   11894   11896
   11895   11894   11897   11896   11894   11897   11897   11900   11901
   11897   11900   11902   11897   11900   11903   11898   11897   11899
   11898   11897   11900   11899   11897   11900   11900   11903   11904
   11901   11900   11902   11901   11900   11903   11902   11900   11903
   11905   11909   11910   11905   11909   11919   11906   11905   11907
   11906   11905   11908   11906   11905   11909   11907   11905   11908
   11907   11905   11909   11908   11905   11909   11909   11910   11911
   11909   11910   11912   11909   11910   11913   11909   11919   11916
   11909   11919   11920   11910   11909   11919   11910   11913   11914
   11910   11913   11915   11910   11913   11916   11911   11910   11912
   11911   11910   11913   11912   11910   11913   11913   11916   11917
   11913   11916   11918   11913   11916   11919   11914   11913   11915
   11914   11913   11916   11915   11913   11916   11916   11919   11920
   11917   11916   11918   11917   11916   11919   11918   11916   11919
   11921   11925   11926   11921   11925   11935   11922   11921   11923
   11922   11921   11924   11922   11921   11925   11923   11921   11924
   11923   11921   11925   11924   11921   11925   11925   11926   11927
   11925   11926   11928   11925   11926   11929   11925   11935   11932
   11925   11935   11936   11926   11925   11935   11926   11929   11930
   11926   11929   11931   11926   11929   11932   11927   11926   11928
   11927   11926   11929   11928   11926   11929   11929   11932   11933
   11929   11932   11934   11929   11932   11935   11930   11929   11931
   11930   11929   11932   11931   11929   11932   11932   11935   11936
   11933   11932   11934   11933   11932   11935   11934   11932   11935
   11937   11941   11942   11937   11941   11951   11938   11937   11939
   11938   11937   11940   11938   11937   11941   11939   11937   11940
   11939   11937   11941   11940   11937   11941   11941   11942   11943
   11941   11942   11944   11941   11942   11945   11941   11951   11948
   11941   11951   11952   11942   11941   11951   11942   11945   11946
   11942   11945   11947   11942   11945   11948   11943   11942   11944
   11943   11942   11945   11944   11942   11945   11945   11948   11949
   11945   11948   11950   11945   11948   11951   11946   11945   11947
   11946   11945   11948   11947   11945   11948   11948   11951   11952
   11949   11948   11950   11949   11948   11951   11950   11948   11951
   11953   11957   11958   11953   11957   11967   11954   11953   11955
   11954   11953   11956   11954   11953   11957   11955   11953   11956
   11955   11953   11957   11956   11953   11957   11957   11958   11959
   11957   11958   11960   11957   11958   11961   11957   11967   11964
   11957   11967   11968   11958   11957   11967   11958   11961   11962
   11958   11961   11963   11958   11961   11964   11959   11958   11960
   11959   11958   11961   11960   11958   11961   11961   11964   11965
   11961   11964   11966   11961   11964   11967   11962   11961   11963
   11962   11961   11964   11963   11961   11964   11964   11967   11968
   11965   11964   11966   11965   11964   11967   11966   11964   11967
   11969   11973   11974   11969   11973   11983   11970   11969   11971
   11970   11969   11972   11970   11969   11973   11971   11969   11972
   11971   11969   11973   11972   11969   11973   11973   11974   11975
   11973   11974   11976   11973   11974   11977   11973   11983   11980
   11973   11983   11984   11974   11973   11983   11974   11977   11978
   11974   11977   11979   11974   11977   11980   11975   11974   11976
   11975   11974   11977   11976   11974   11977   11977   11980   11981
   11977   11980   11982   11977   11980   11983   11978   11977   11979
   11978   11977   11980   11979   11977   11980   11980   11983   11984
   11981   11980   11982   11981   11980   11983   11982   11980   11983
   11985   11989   11990   11985   11989   11999   11986   11985   11987
   11986   11985   11988   11986   11985   11989   11987   11985   11988
   11987   11985   11989   11988   11985   11989   11989   11990   11991
   11989   11990   11992   11989   11990   11993   11989   11999   11996
   11989   11999   12000   11990   11989   11999   11990   11993   11994
   11990   11993   11995   11990   11993   11996   11991   11990   11992
   11991   11990   11993   11992   11990   11993   11993   11996   11997
   11993   11996   11998   11993   11996   11999   11994   11993   11995
   11994   11993   11996   11995   11993   11996   11996   11999   12000
   11997   11996   11998   11997   11996   11999   11998   11996   11999
   12001   12005   12006   12001   12005   12015   12002   12001   12003
   12002   12001   12004   12002   12001   12005   12003   12001   12004
   12003   12001   12005   12004   12001   12005   12005   12006   12007
   12005   12006   12008   12005   12006   12009   12005   12015   12012
   12005   12015   12016   12006   12005   12015   12006   12009   12010
   12006   12009   12011   12006   12009   12012   12007   12006   12008
   12007   12006   12009   12008   12006   12009   12009   12012   12013
   12009   12012   12014   12009   12012   12015   12010   12009   12011
   12010   12009   12012   12011   12009   12012   12012   12015   12016
   12013   12012   12014   12013   12012   12015   12014   12012   12015
   12017   12021   12022   12017   12021   12031   12018   12017   12019
   12018   12017   12020   12018   12017   12021   12019   12017   12020
   12019   12017   12021   12020   12017   12021   12021   12022   12023
   12021   12022   12024   12021   12022   12025   12021   12031   12028
   12021   12031   12032   12022   12021   12031   12022   12025   12026
   12022   12025   12027   12022   12025   12028   12023   12022   12024
   12023   12022   12025   12024   12022   12025   12025   12028   12029
   12025   12028   12030   12025   12028   12031   12026   12025   12027
   12026   12025   12028   12027   12025   12028   12028   12031   12032
   12029   12028   12030   12029   12028   12031   12030   12028   12031
   12033   12037   12038   12033   12037   12047   12034   12033   12035
   12034   12033   12036   12034   12033   12037   12035   12033   12036
   12035   12033   12037   12036   12033   12037   12037   12038   12039
   12037   12038   12040   12037   12038   12041   12037   12047   12044
   12037   12047   12048   12038   12037   12047   12038   12041   12042
   12038   12041   12043   12038   12041   12044   12039   12038   12040
   12039   12038   12041   12040   12038   12041   12041   12044   12045
   12041   12044   12046   12041   12044   12047   12042   12041   12043
   12042   12041   12044   12043   12041   12044   12044   12047   12048
   12045   12044   12046   12045   12044   12047   12046   12044   12047
   12049   12053   12054   12049   12053   12063   12050   12049   12051
   12050   12049   12052   12050   12049   12053   12051   12049   12052
   12051   12049   12053   12052   12049   12053   12053   12054   12055
   12053   12054   12056   12053   12054   12057   12053   12063   12060
   12053   12063   12064   12054   12053   12063   12054   12057   12058
   12054   12057   12059   12054   12057   12060   12055   12054   12056
   12055   12054   12057   12056   12054   12057   12057   12060   12061
   12057   12060   12062   12057   12060   12063   12058   12057   12059
   12058   12057   12060   12059   12057   12060   12060   12063   12064
   12061   12060   12062   12061   12060   12063   12062   12060   12063
   12065   12069   12070   12065   12069   12079   12066   12065   12067
   12066   12065   12068   12066   12065   12069   12067   12065   12068
   12067   12065   12069   12068   12065   12069   12069   12070   12071
   12069   12070   12072   12069   12070   12073   12069   12079   12076
   12069   12079   12080   12070   12069   12079   12070   12073   12074
   12070   12073   12075   12070   12073   12076   12071   12070   12072
   12071   12070   12073   12072   12070   12073   12073   12076   12077
   12073   12076   12078   12073   12076   12079   12074   12073   12075
   12074   12073   12076   12075   12073   12076   12076   12079   12080
   12077   12076   12078   12077   12076   12079   12078   12076   12079
   12081   12085   12086   12081   12085   12095   12082   12081   12083
   12082   12081   12084   12082   12081   12085   12083   12081   12084
   12083   12081   12085   12084   12081   12085   12085   12086   12087
   12085   12086   12088   12085   12086   12089   12085   12095   12092
   12085   12095   12096   12086   12085   12095   12086   12089   12090
   12086   12089   12091   12086   12089   12092   12087   12086   12088
   12087   12086   12089   12088   12086   12089   12089   12092   12093
   12089   12092   12094   12089   12092   12095   12090   12089   12091
   12090   12089   12092   12091   12089   12092   12092   12095   12096
   12093   12092   12094   12093   12092   12095   12094   12092   12095
   12097   12101   12102   12097   12101   12111   12098   12097   12099
   12098   12097   12100   12098   12097   12101   12099   12097   12100
   12099   12097   12101   12100   12097   12101   12101   12102   12103
   12101   12102   12104   12101   12102   12105   12101   12111   12108
   12101   12111   12112   12102   12101   12111   12102   12105   12106
   12102   12105   12107   12102   12105   12108   12103   12102   12104
   12103   12102   12105   12104   12102   12105   12105   12108   12109
   12105   12108   12110   12105   12108   12111   12106   12105   12107
   12106   12105   12108   12107   12105   12108   12108   12111   12112
   12109   12108   12110   12109   12108   12111   12110   12108   12111
   12113   12117   12118   12113   12117   12127   12114   12113   12115
   12114   12113   12116   12114   12113   12117   12115   12113   12116
   12115   12113   12117   12116   12113   12117   12117   12118   12119
   12117   12118   12120   12117   12118   12121   12117   12127   12124
   12117   12127   12128   12118   12117   12127   12118   12121   12122
   12118   12121   12123   12118   12121   12124   12119   12118   12120
   12119   12118   12121   12120   12118   12121   12121   12124   12125
   12121   12124   12126   12121   12124   12127   12122   12121   12123
   12122   12121   12124   12123   12121   12124   12124   12127   12128
   12125   12124   12126   12125   12124   12127   12126   12124   12127
   12129   12133   12134   12129   12133   12143   12130   12129   12131
   12130   12129   12132   12130   12129   12133   12131   12129   12132
   12131   12129   12133   12132   12129   12133   12133   12134   12135
   12133   12134   12136   12133   12134   12137   12133   12143   12140
   12133   12143   12144   12134   12133   12143   12134   12137   12138
   12134   12137   12139   12134   12137   12140   12135   12134   12136
   12135   12134   12137   12136   12134   12137   12137   12140   12141
   12137   12140   12142   12137   12140   12143   12138   12137   12139
   12138   12137   12140   12139   12137   12140   12140   12143   12144
   12141   12140   12142   12141   12140   12143   12142   12140   12143
   12145   12149   12150   12145   12149   12159   12146   12145   12147
   12146   12145   12148   12146   12145   12149   12147   12145   12148
   12147   12145   12149   12148   12145   12149   12149   12150   12151
   12149   12150   12152   12149   12150   12153   12149   12159   12156
   12149   12159   12160   12150   12149   12159   12150   12153   12154
   12150   12153   12155   12150   12153   12156   12151   12150   12152
   12151   12150   12153   12152   12150   12153   12153   12156   12157
   12153   12156   12158   12153   12156   12159   12154   12153   12155
   12154   12153   12156   12155   12153   12156   12156   12159   12160
   12157   12156   12158   12157   12156   12159   12158   12156   12159
   12161   12165   12166   12161   12165   12175   12162   12161   12163
   12162   12161   12164   12162   12161   12165   12163   12161   12164
   12163   12161   12165   12164   12161   12165   12165   12166   12167
   12165   12166   12168   12165   12166   12169   12165   12175   12172
   12165   12175   12176   12166   12165   12175   12166   12169   12170
   12166   12169   12171   12166   12169   12172   12167   12166   12168
   12167   12166   12169   12168   12166   12169   12169   12172   12173
   12169   12172   12174   12169   12172   12175   12170   12169   12171
   12170   12169   12172   12171   12169   12172   12172   12175   12176
   12173   12172   12174   12173   12172   12175   12174   12172   12175
   12177   12181   12182   12177   12181   12191   12178   12177   12179
   12178   12177   12180   12178   12177   12181   12179   12177   12180
   12179   12177   12181   12180   12177   12181   12181   12182   12183
   12181   12182   12184   12181   12182   12185   12181   12191   12188
   12181   12191   12192   12182   12181   12191   12182   12185   12186
   12182   12185   12187   12182   12185   12188   12183   12182   12184
   12183   12182   12185   12184   12182   12185   12185   12188   12189
   12185   12188   12190   12185   12188   12191   12186   12185   12187
   12186   12185   12188   12187   12185   12188   12188   12191   12192
   12189   12188   12190   12189   12188   12191   12190   12188   12191
   12193   12197   12198   12193   12197   12207   12194   12193   12195
   12194   12193   12196   12194   12193   12197   12195   12193   12196
   12195   12193   12197   12196   12193   12197   12197   12198   12199
   12197   12198   12200   12197   12198   12201   12197   12207   12204
   12197   12207   12208   12198   12197   12207   12198   12201   12202
   12198   12201   12203   12198   12201   12204   12199   12198   12200
   12199   12198   12201   12200   12198   12201   12201   12204   12205
   12201   12204   12206   12201   12204   12207   12202   12201   12203
   12202   12201   12204   12203   12201   12204   12204   12207   12208
   12205   12204   12206   12205   12204   12207   12206   12204   12207
   12209   12213   12214   12209   12213   12223   12210   12209   12211
   12210   12209   12212   12210   12209   12213   12211   12209   12212
   12211   12209   12213   12212   12209   12213   12213   12214   12215
   12213   12214   12216   12213   12214   12217   12213   12223   12220
   12213   12223   12224   12214   12213   12223   12214   12217   12218
   12214   12217   12219   12214   12217   12220   12215   12214   12216
   12215   12214   12217   12216   12214   12217   12217   12220   12221
   12217   12220   12222   12217   12220   12223   12218   12217   12219
   12218   12217   12220   12219   12217   12220   12220   12223   12224
   12221   12220   12222   12221   12220   12223   12222   12220   12223
   12225   12229   12230   12225   12229   12239   12226   12225   12227
   12226   12225   12228   12226   12225   12229   12227   12225   12228
   12227   12225   12229   12228   12225   12229   12229   12230   12231
   12229   12230   12232   12229   12230   12233   12229   12239   12236
   12229   12239   12240   12230   12229   12239   12230   12233   12234
   12230   12233   12235   12230   12233   12236   12231   12230   12232
   12231   12230   12233   12232   12230   12233   12233   12236   12237
   12233   12236   12238   12233   12236   12239   12234   12233   12235
   12234   12233   12236   12235   12233   12236   12236   12239   12240
   12237   12236   12238   12237   12236   12239   12238   12236   12239
   12241   12245   12246   12241   12245   12255   12242   12241   12243
   12242   12241   12244   12242   12241   12245   12243   12241   12244
   12243   12241   12245   12244   12241   12245   12245   12246   12247
   12245   12246   12248   12245   12246   12249   12245   12255   12252
   12245   12255   12256   12246   12245   12255   12246   12249   12250
   12246   12249   12251   12246   12249   12252   12247   12246   12248
   12247   12246   12249   12248   12246   12249   12249   12252   12253
   12249   12252   12254   12249   12252   12255   12250   12249   12251
   12250   12249   12252   12251   12249   12252   12252   12255   12256
   12253   12252   12254   12253   12252   12255   12254   12252   12255
   12257   12261   12262   12257   12261   12271   12258   12257   12259
   12258   12257   12260   12258   12257   12261   12259   12257   12260
   12259   12257   12261   12260   12257   12261   12261   12262   12263
   12261   12262   12264   12261   12262   12265   12261   12271   12268
   12261   12271   12272   12262   12261   12271   12262   12265   12266
   12262   12265   12267   12262   12265   12268   12263   12262   12264
   12263   12262   12265   12264   12262   12265   12265   12268   12269
   12265   12268   12270   12265   12268   12271   12266   12265   12267
   12266   12265   12268   12267   12265   12268   12268   12271   12272
   12269   12268   12270   12269   12268   12271   12270   12268   12271
   12273   12277   12278   12273   12277   12287   12274   12273   12275
   12274   12273   12276   12274   12273   12277   12275   12273   12276
   12275   12273   12277   12276   12273   12277   12277   12278   12279
   12277   12278   12280   12277   12278   12281   12277   12287   12284
   12277   12287   12288   12278   12277   12287   12278   12281   12282
   12278   12281   12283   12278   12281   12284   12279   12278   12280
   12279   12278   12281   12280   12278   12281   12281   12284   12285
   12281   12284   12286   12281   12284   12287   12282   12281   12283
   12282   12281   12284   12283   12281   12284   12284   12287   12288
   12285   12284   12286   12285   12284   12287   12286   12284   12287
   12289   12293   12294   12289   12293   12303   12290   12289   12291
   12290   12289   12292   12290   12289   12293   12291   12289   12292
   12291   12289   12293   12292   12289   12293   12293   12294   12295
   12293   12294   12296   12293   12294   12297   12293   12303   12300
   12293   12303   12304   12294   12293   12303   12294   12297   12298
   12294   12297   12299   12294   12297   12300   12295   12294   12296
   12295   12294   12297   12296   12294   12297   12297   12300   12301
   12297   12300   12302   12297   12300   12303   12298   12297   12299
   12298   12297   12300   12299   12297   12300   12300   12303   12304
   12301   12300   12302   12301   12300   12303   12302   12300   12303
   12305   12309   12310   12305   12309   12319   12306   12305   12307
   12306   12305   12308   12306   12305   12309   12307   12305   12308
   12307   12305   12309   12308   12305   12309   12309   12310   12311
   12309   12310   12312   12309   12310   12313   12309   12319   12316
   12309   12319   12320   12310   12309   12319   12310   12313   12314
   12310   12313   12315   12310   12313   12316   12311   12310   12312
   12311   12310   12313   12312   12310   12313   12313   12316   12317
   12313   12316   12318   12313   12316   12319   12314   12313   12315
   12314   12313   12316   12315   12313   12316   12316   12319   12320
   12317   12316   12318   12317   12316   12319   12318   12316   12319
   12321   12325   12326   12321   12325   12335   12322   12321   12323
   12322   12321   12324   12322   12321   12325   12323   12321   12324
   12323   12321   12325   12324   12321   12325   12325   12326   12327
   12325   12326   12328   12325   12326   12329   12325   12335   12332
   12325   12335   12336   12326   12325   12335   12326   12329   12330
   12326   12329   12331   12326   12329   12332   12327   12326   12328
   12327   12326   12329   12328   12326   12329   12329   12332   12333
   12329   12332   12334   12329   12332   12335   12330   12329   12331
   12330   12329   12332   12331   12329   12332   12332   12335   12336
   12333   12332   12334   12333   12332   12335   12334   12332   12335
   12337   12341   12342   12337   12341   12351   12338   12337   12339
   12338   12337   12340   12338   12337   12341   12339   12337   12340
   12339   12337   12341   12340   12337   12341   12341   12342   12343
   12341   12342   12344   12341   12342   12345   12341   12351   12348
   12341   12351   12352   12342   12341   12351   12342   12345   12346
   12342   12345   12347   12342   12345   12348   12343   12342   12344
   12343   12342   12345   12344   12342   12345   12345   12348   12349
   12345   12348   12350   12345   12348   12351   12346   12345   12347
   12346   12345   12348   12347   12345   12348   12348   12351   12352
   12349   12348   12350   12349   12348   12351   12350   12348   12351
   12353   12357   12358   12353   12357   12367   12354   12353   12355
   12354   12353   12356   12354   12353   12357   12355   12353   12356
   12355   12353   12357   12356   12353   12357   12357   12358   12359
   12357   12358   12360   12357   12358   12361   12357   12367   12364
   12357   12367   12368   12358   12357   12367   12358   12361   12362
   12358   12361   12363   12358   12361   12364   12359   12358   12360
   12359   12358   12361   12360   12358   12361   12361   12364   12365
   12361   12364   12366   12361   12364   12367   12362   12361   12363
   12362   12361   12364   12363   12361   12364   12364   12367   12368
   12365   12364   12366   12365   12364   12367   12366   12364   12367
   12369   12373   12374   12369   12373   12383   12370   12369   12371
   12370   12369   12372   12370   12369   12373   12371   12369   12372
   12371   12369   12373   12372   12369   12373   12373   12374   12375
   12373   12374   12376   12373   12374   12377   12373   12383   12380
   12373   12383   12384   12374   12373   12383   12374   12377   12378
   12374   12377   12379   12374   12377   12380   12375   12374   12376
   12375   12374   12377   12376   12374   12377   12377   12380   12381
   12377   12380   12382   12377   12380   12383   12378   12377   12379
   12378   12377   12380   12379   12377   12380   12380   12383   12384
   12381   12380   12382   12381   12380   12383   12382   12380   12383
   12385   12389   12390   12385   12389   12399   12386   12385   12387
   12386   12385   12388   12386   12385   12389   12387   12385   12388
   12387   12385   12389   12388   12385   12389   12389   12390   12391
   12389   12390   12392   12389   12390   12393   12389   12399   12396
   12389   12399   12400   12390   12389   12399   12390   12393   12394
   12390   12393   12395   12390   12393   12396   12391   12390   12392
   12391   12390   12393   12392   12390   12393   12393   12396   12397
   12393   12396   12398   12393   12396   12399   12394   12393   12395
   12394   12393   12396   12395   12393   12396   12396   12399   12400
   12397   12396   12398   12397   12396   12399   12398   12396   12399
   12401   12405   12406   12401   12405   12415   12402   12401   12403
   12402   12401   12404   12402   12401   12405   12403   12401   12404
   12403   12401   12405   12404   12401   12405   12405   12406   12407
   12405   12406   12408   12405   12406   12409   12405   12415   12412
   12405   12415   12416   12406   12405   12415   12406   12409   12410
   12406   12409   12411   12406   12409   12412   12407   12406   12408
   12407   12406   12409   12408   12406   12409   12409   12412   12413
   12409   12412   12414   12409   12412   12415   12410   12409   12411
   12410   12409   12412   12411   12409   12412   12412   12415   12416
   12413   12412   12414   12413   12412   12415   12414   12412   12415
   12417   12421   12422   12417   12421   12431   12418   12417   12419
   12418   12417   12420   12418   12417   12421   12419   12417   12420
   12419   12417   12421   12420   12417   12421   12421   12422   12423
   12421   12422   12424   12421   12422   12425   12421   12431   12428
   12421   12431   12432   12422   12421   12431   12422   12425   12426
   12422   12425   12427   12422   12425   12428   12423   12422   12424
   12423   12422   12425   12424   12422   12425   12425   12428   12429
   12425   12428   12430   12425   12428   12431   12426   12425   12427
   12426   12425   12428   12427   12425   12428   12428   12431   12432
   12429   12428   12430   12429   12428   12431   12430   12428   12431
   12433   12437   12438   12433   12437   12447   12434   12433   12435
   12434   12433   12436   12434   12433   12437   12435   12433   12436
   12435   12433   12437   12436   12433   12437   12437   12438   12439
   12437   12438   12440   12437   12438   12441   12437   12447   12444
   12437   12447   12448   12438   12437   12447   12438   12441   12442
   12438   12441   12443   12438   12441   12444   12439   12438   12440
   12439   12438   12441   12440   12438   12441   12441   12444   12445
   12441   12444   12446   12441   12444   12447   12442   12441   12443
   12442   12441   12444   12443   12441   12444   12444   12447   12448
   12445   12444   12446   12445   12444   12447   12446   12444   12447
   12449   12453   12454   12449   12453   12463   12450   12449   12451
   12450   12449   12452   12450   12449   12453   12451   12449   12452
   12451   12449   12453   12452   12449   12453   12453   12454   12455
   12453   12454   12456   12453   12454   12457   12453   12463   12460
   12453   12463   12464   12454   12453   12463   12454   12457   12458
   12454   12457   12459   12454   12457   12460   12455   12454   12456
   12455   12454   12457   12456   12454   12457   12457   12460   12461
   12457   12460   12462   12457   12460   12463   12458   12457   12459
   12458   12457   12460   12459   12457   12460   12460   12463   12464
   12461   12460   12462   12461   12460   12463   12462   12460   12463
   12465   12469   12470   12465   12469   12479   12466   12465   12467
   12466   12465   12468   12466   12465   12469   12467   12465   12468
   12467   12465   12469   12468   12465   12469   12469   12470   12471
   12469   12470   12472   12469   12470   12473   12469   12479   12476
   12469   12479   12480   12470   12469   12479   12470   12473   12474
   12470   12473   12475   12470   12473   12476   12471   12470   12472
   12471   12470   12473   12472   12470   12473   12473   12476   12477
   12473   12476   12478   12473   12476   12479   12474   12473   12475
   12474   12473   12476   12475   12473   12476   12476   12479   12480
   12477   12476   12478   12477   12476   12479   12478   12476   12479
   12481   12485   12486   12481   12485   12495   12482   12481   12483
   12482   12481   12484   12482   12481   12485   12483   12481   12484
   12483   12481   12485   12484   12481   12485   12485   12486   12487
   12485   12486   12488   12485   12486   12489   12485   12495   12492
   12485   12495   12496   12486   12485   12495   12486   12489   12490
   12486   12489   12491   12486   12489   12492   12487   12486   12488
   12487   12486   12489   12488   12486   12489   12489   12492   12493
   12489   12492   12494   12489   12492   12495   12490   12489   12491
   12490   12489   12492   12491   12489   12492   12492   12495   12496
   12493   12492   12494   12493   12492   12495   12494   12492   12495
   12497   12501   12502   12497   12501   12511   12498   12497   12499
   12498   12497   12500   12498   12497   12501   12499   12497   12500
   12499   12497   12501   12500   12497   12501   12501   12502   12503
   12501   12502   12504   12501   12502   12505   12501   12511   12508
   12501   12511   12512   12502   12501   12511   12502   12505   12506
   12502   12505   12507   12502   12505   12508   12503   12502   12504
   12503   12502   12505   12504   12502   12505   12505   12508   12509
   12505   12508   12510   12505   12508   12511   12506   12505   12507
   12506   12505   12508   12507   12505   12508   12508   12511   12512
   12509   12508   12510   12509   12508   12511   12510   12508   12511
   12513   12517   12518   12513   12517   12527   12514   12513   12515
   12514   12513   12516   12514   12513   12517   12515   12513   12516
   12515   12513   12517   12516   12513   12517   12517   12518   12519
   12517   12518   12520   12517   12518   12521   12517   12527   12524
   12517   12527   12528   12518   12517   12527   12518   12521   12522
   12518   12521   12523   12518   12521   12524   12519   12518   12520
   12519   12518   12521   12520   12518   12521   12521   12524   12525
   12521   12524   12526   12521   12524   12527   12522   12521   12523
   12522   12521   12524   12523   12521   12524   12524   12527   12528
   12525   12524   12526   12525   12524   12527   12526   12524   12527
   12529   12533   12534   12529   12533   12543   12530   12529   12531
   12530   12529   12532   12530   12529   12533   12531   12529   12532
   12531   12529   12533   12532   12529   12533   12533   12534   12535
   12533   12534   12536   12533   12534   12537   12533   12543   12540
   12533   12543   12544   12534   12533   12543   12534   12537   12538
   12534   12537   12539   12534   12537   12540   12535   12534   12536
   12535   12534   12537   12536   12534   12537   12537   12540   12541
   12537   12540   12542   12537   12540   12543   12538   12537   12539
   12538   12537   12540   12539   12537   12540   12540   12543   12544
   12541   12540   12542   12541   12540   12543   12542   12540   12543
   12545   12549   12550   12545   12549   12559   12546   12545   12547
   12546   12545   12548   12546   12545   12549   12547   12545   12548
   12547   12545   12549   12548   12545   12549   12549   12550   12551
   12549   12550   12552   12549   12550   12553   12549   12559   12556
   12549   12559   12560   12550   12549   12559   12550   12553   12554
   12550   12553   12555   12550   12553   12556   12551   12550   12552
   12551   12550   12553   12552   12550   12553   12553   12556   12557
   12553   12556   12558   12553   12556   12559   12554   12553   12555
   12554   12553   12556   12555   12553   12556   12556   12559   12560
   12557   12556   12558   12557   12556   12559   12558   12556   12559
   12561   12565   12566   12561   12565   12575   12562   12561   12563
   12562   12561   12564   12562   12561   12565   12563   12561   12564
   12563   12561   12565   12564   12561   12565   12565   12566   12567
   12565   12566   12568   12565   12566   12569   12565   12575   12572
   12565   12575   12576   12566   12565   12575   12566   12569   12570
   12566   12569   12571   12566   12569   12572   12567   12566   12568
   12567   12566   12569   12568   12566   12569   12569   12572   12573
   12569   12572   12574   12569   12572   12575   12570   12569   12571
   12570   12569   12572   12571   12569   12572   12572   12575   12576
   12573   12572   12574   12573   12572   12575   12574   12572   12575
   12577   12581   12582   12577   12581   12591   12578   12577   12579
   12578   12577   12580   12578   12577   12581   12579   12577   12580
   12579   12577   12581   12580   12577   12581   12581   12582   12583
   12581   12582   12584   12581   12582   12585   12581   12591   12588
   12581   12591   12592   12582   12581   12591   12582   12585   12586
   12582   12585   12587   12582   12585   12588   12583   12582   12584
   12583   12582   12585   12584   12582   12585   12585   12588   12589
   12585   12588   12590   12585   12588   12591   12586   12585   12587
   12586   12585   12588   12587   12585   12588   12588   12591   12592
   12589   12588   12590   12589   12588   12591   12590   12588   12591
   12593   12597   12598   12593   12597   12607   12594   12593   12595
   12594   12593   12596   12594   12593   12597   12595   12593   12596
   12595   12593   12597   12596   12593   12597   12597   12598   12599
   12597   12598   12600   12597   12598   12601   12597   12607   12604
   12597   12607   12608   12598   12597   12607   12598   12601   12602
   12598   12601   12603   12598   12601   12604   12599   12598   12600
   12599   12598   12601   12600   12598   12601   12601   12604   12605
   12601   12604   12606   12601   12604   12607   12602   12601   12603
   12602   12601   12604   12603   12601   12604   12604   12607   12608
   12605   12604   12606   12605   12604   12607   12606   12604   12607
   12609   12613   12614   12609   12613   12623   12610   12609   12611
   12610   12609   12612   12610   12609   12613   12611   12609   12612
   12611   12609   12613   12612   12609   12613   12613   12614   12615
   12613   12614   12616   12613   12614   12617   12613   12623   12620
   12613   12623   12624   12614   12613   12623   12614   12617   12618
   12614   12617   12619   12614   12617   12620   12615   12614   12616
   12615   12614   12617   12616   12614   12617   12617   12620   12621
   12617   12620   12622   12617   12620   12623   12618   12617   12619
   12618   12617   12620   12619   12617   12620   12620   12623   12624
   12621   12620   12622   12621   12620   12623   12622   12620   12623
   12625   12629   12630   12625   12629   12639   12626   12625   12627
   12626   12625   12628   12626   12625   12629   12627   12625   12628
   12627   12625   12629   12628   12625   12629   12629   12630   12631
   12629   12630   12632   12629   12630   12633   12629   12639   12636
   12629   12639   12640   12630   12629   12639   12630   12633   12634
   12630   12633   12635   12630   12633   12636   12631   12630   12632
   12631   12630   12633   12632   12630   12633   12633   12636   12637
   12633   12636   12638   12633   12636   12639   12634   12633   12635
   12634   12633   12636   12635   12633   12636   12636   12639   12640
   12637   12636   12638   12637   12636   12639   12638   12636   12639
   12641   12645   12646   12641   12645   12655   12642   12641   12643
   12642   12641   12644   12642   12641   12645   12643   12641   12644
   12643   12641   12645   12644   12641   12645   12645   12646   12647
   12645   12646   12648   12645   12646   12649   12645   12655   12652
   12645   12655   12656   12646   12645   12655   12646   12649   12650
   12646   12649   12651   12646   12649   12652   12647   12646   12648
   12647   12646   12649   12648   12646   12649   12649   12652   12653
   12649   12652   12654   12649   12652   12655   12650   12649   12651
   12650   12649   12652   12651   12649   12652   12652   12655   12656
   12653   12652   12654   12653   12652   12655   12654   12652   12655
   12657   12661   12662   12657   12661   12671   12658   12657   12659
   12658   12657   12660   12658   12657   12661   12659   12657   12660
   12659   12657   12661   12660   12657   12661   12661   12662   12663
   12661   12662   12664   12661   12662   12665   12661   12671   12668
   12661   12671   12672   12662   12661   12671   12662   12665   12666
   12662   12665   12667   12662   12665   12668   12663   12662   12664
   12663   12662   12665   12664   12662   12665   12665   12668   12669
   12665   12668   12670   12665   12668   12671   12666   12665   12667
   12666   12665   12668   12667   12665   12668   12668   12671   12672
   12669   12668   12670   12669   12668   12671   12670   12668   12671
   12673   12677   12678   12673   12677   12687   12674   12673   12675
   12674   12673   12676   12674   12673   12677   12675   12673   12676
   12675   12673   12677   12676   12673   12677   12677   12678   12679
   12677   12678   12680   12677   12678   12681   12677   12687   12684
   12677   12687   12688   12678   12677   12687   12678   12681   12682
   12678   12681   12683   12678   12681   12684   12679   12678   12680
   12679   12678   12681   12680   12678   12681   12681   12684   12685
   12681   12684   12686   12681   12684   12687   12682   12681   12683
   12682   12681   12684   12683   12681   12684   12684   12687   12688
   12685   12684   12686   12685   12684   12687   12686   12684   12687
   12689   12693   12694   12689   12693   12703   12690   12689   12691
   12690   12689   12692   12690   12689   12693   12691   12689   12692
   12691   12689   12693   12692   12689   12693   12693   12694   12695
   12693   12694   12696   12693   12694   12697   12693   12703   12700
   12693   12703   12704   12694   12693   12703   12694   12697   12698
   12694   12697   12699   12694   12697   12700   12695   12694   12696
   12695   12694   12697   12696   12694   12697   12697   12700   12701
   12697   12700   12702   12697   12700   12703   12698   12697   12699
   12698   12697   12700   12699   12697   12700   12700   12703   12704
   12701   12700   12702   12701   12700   12703   12702   12700   12703
   12705   12709   12710   12705   12709   12719   12706   12705   12707
   12706   12705   12708   12706   12705   12709   12707   12705   12708
   12707   12705   12709   12708   12705   12709   12709   12710   12711
   12709   12710   12712   12709   12710   12713   12709   12719   12716
   12709   12719   12720   12710   12709   12719   12710   12713   12714
   12710   12713   12715   12710   12713   12716   12711   12710   12712
   12711   12710   12713   12712   12710   12713   12713   12716   12717
   12713   12716   12718   12713   12716   12719   12714   12713   12715
   12714   12713   12716   12715   12713   12716   12716   12719   12720
   12717   12716   12718   12717   12716   12719   12718   12716   12719
   12721   12725   12726   12721   12725   12735   12722   12721   12723
   12722   12721   12724   12722   12721   12725   12723   12721   12724
   12723   12721   12725   12724   12721   12725   12725   12726   12727
   12725   12726   12728   12725   12726   12729   12725   12735   12732
   12725   12735   12736   12726   12725   12735   12726   12729   12730
   12726   12729   12731   12726   12729   12732   12727   12726   12728
   12727   12726   12729   12728   12726   12729   12729   12732   12733
   12729   12732   12734   12729   12732   12735   12730   12729   12731
   12730   12729   12732   12731   12729   12732   12732   12735   12736
   12733   12732   12734   12733   12732   12735   12734   12732   12735
   12737   12741   12742   12737   12741   12751   12738   12737   12739
   12738   12737   12740   12738   12737   12741   12739   12737   12740
   12739   12737   12741   12740   12737   12741   12741   12742   12743
   12741   12742   12744   12741   12742   12745   12741   12751   12748
   12741   12751   12752   12742   12741   12751   12742   12745   12746
   12742   12745   12747   12742   12745   12748   12743   12742   12744
   12743   12742   12745   12744   12742   12745   12745   12748   12749
   12745   12748   12750   12745   12748   12751   12746   12745   12747
   12746   12745   12748   12747   12745   12748   12748   12751   12752
   12749   12748   12750   12749   12748   12751   12750   12748   12751
   12753   12757   12758   12753   12757   12767   12754   12753   12755
   12754   12753   12756   12754   12753   12757   12755   12753   12756
   12755   12753   12757   12756   12753   12757   12757   12758   12759
   12757   12758   12760   12757   12758   12761   12757   12767   12764
   12757   12767   12768   12758   12757   12767   12758   12761   12762
   12758   12761   12763   12758   12761   12764   12759   12758   12760
   12759   12758   12761   12760   12758   12761   12761   12764   12765
   12761   12764   12766   12761   12764   12767   12762   12761   12763
   12762   12761   12764   12763   12761   12764   12764   12767   12768
   12765   12764   12766   12765   12764   12767   12766   12764   12767
   12769   12773   12774   12769   12773   12783   12770   12769   12771
   12770   12769   12772   12770   12769   12773   12771   12769   12772
   12771   12769   12773   12772   12769   12773   12773   12774   12775
   12773   12774   12776   12773   12774   12777   12773   12783   12780
   12773   12783   12784   12774   12773   12783   12774   12777   12778
   12774   12777   12779   12774   12777   12780   12775   12774   12776
   12775   12774   12777   12776   12774   12777   12777   12780   12781
   12777   12780   12782   12777   12780   12783   12778   12777   12779
   12778   12777   12780   12779   12777   12780   12780   12783   12784
   12781   12780   12782   12781   12780   12783   12782   12780   12783
   12785   12789   12790   12785   12789   12799   12786   12785   12787
   12786   12785   12788   12786   12785   12789   12787   12785   12788
   12787   12785   12789   12788   12785   12789   12789   12790   12791
   12789   12790   12792   12789   12790   12793   12789   12799   12796
   12789   12799   12800   12790   12789   12799   12790   12793   12794
   12790   12793   12795   12790   12793   12796   12791   12790   12792
   12791   12790   12793   12792   12790   12793   12793   12796   12797
   12793   12796   12798   12793   12796   12799   12794   12793   12795
   12794   12793   12796   12795   12793   12796   12796   12799   12800
   12797   12796   12798   12797   12796   12799   12798   12796   12799

   32000 !NPHI: dihedrals
       1       5       6       7       1       5       6       8
       1       5       6       9       1       5      15      12
       1       5      15      16       2       1       5       6
       2       1       5      15       3       1       5       6
       3       1       5      15       4       1       5       6
       4       1       5      15       5       6       9      10
       5       6       9      11       5       6       9      12
       5      15      12       9       5      15      12      13
       5      15      12      14       6       5      15      12
       6       5      15      16       6       9      12      13
       6       9      12      14       6       9      12      15
       7       6       5      15       7       6       9      10
       7       6       9      11       7       6       9      12
       8       6       5      15       8       6       9      10
       8       6       9      11       8       6       9      12
       9       6       5      15       9      12      15      16
      10       9      12      13      10       9      12      14
      10       9      12      15      11       9      12      13
      11       9      12      14      11       9      12      15
      13      12      15      16      14      12      15      16
      17      21      22      23      17      21      22      24
      17      21      22      25      17      21      31      28
      17      21      31      32      18      17      21      22
      18      17      21      31      19      17      21      22
      19      17      21      31      20      17      21      22
      20      17      21      31      21      22      25      26
      21      22      25      27      21      22      25      28
      21      31      28      25      21      31      28      29
      21      31      28      30      22      21      31      28
      22      21      31      32      22      25      28      29
      22      25      28      30      22      25      28      31
      23      22      21      31      23      22      25      26
      23      22      25      27      23      22      25      28
      24      22      21      31      24      22      25      26
      24      22      25      27      24      22      25      28
      25      22      21      31      25      28      31      32
      26      25      28      29      26      25      28      30
      26      25      28      31      27      25      28      29
      27      25      28      30      27      25      28      31
      29      28      31      32      30      28      31      32
      33      37      38      39      33      37      38      40
      33      37      38      41      33      37      47      44
      33      37      47      48      34      33      37      38
      34      33      37      47      35      33      37      38
      35      33      37      47      36      33      37      38
      36      33      37      47      37      38      41      42
      37      38      41      43      37      38      41      44
      37      47      44      41      37      47      44      45
      37      47      44      46      38      37      47      44
      38      37      47      48      38      41      44      45
      38      41      44      46      38      41      44      47
      39      38      37      47      39      38      41      42
      39      38      41      43      39      38      41      44
      40      38      37      47      40      38      41      42
      40      38      41      43      40      38      41      44
      41      38      37      47      41      44      47      48
      42      41      44      45      42      41      44      46
      42      41      44      47      43      41      44      45
      43      41      44      46      43      41      44      47
      45      44      47      48      46      44      47      48
      49      53      54      55      49      53      54      56
      49      53      54      57      49      53      63      60
      49      53      63      64      50      49      53      54
      50      49      53      63      51      49      53      54
      51      49      53      63      52      49      53      54
      52      49      53      63      53      54      57      58
      53      54      57      59      53      54      57      60
      53      63      60      57      53      63      60      61
      53      63      60      62      54      53      63      60
      54      53      63      64      54      57      60      61
      54      57      60      62      54      57      60      63
      55      54      53      63      55      54      57      58
      55      54      57      59      55      54      57      60
      56      54      53      63      56      54      57      58
      56      54      57      59      56      54      57      60
      57      54      53      63      57      60      63      64
      58      57      60      61      58      57      60      62
      58      57      60      63      59      57      60      61
      59      57      60      62      59      57      60      63
      61      60      63      64      62      60      63      64
      65      69      70      71      65      69      70      72
      65      69      70      73      65      69      79      76
      65      69      79      80      66      65      69      70
      66      65      69      79      67      65      69      70
      67      65      69      79      68      65      69      70
      68      65      69      79      69      70      73      74
      69      70      73      75      69      70      73      76
      69      79      76      73      69      79      76      77
      69      79      76      78      70      69      79      76
      70      69      79      80      70      73      76      77
      70      73      76      78      70      73      76      79
      71      70      69      79      71      70      73      74
      71      70      73      75      71      70      73      76
      72      70      69      79      72      70      73      74
      72      70      73      75      72      70      73      76
      73      70      69      79      73      76      79      80
      74      73      76      77      74      73      76      78
      74      73      76      79      75      73      76      77
      75      73      76      78      75      73      76      79
      77      76      79      80      78      76      79      80
      81      85      86      87      81      85      86      88
      81      85      86      89      81      85      95      92
      81      85      95      96      82      81      85      86
      82      81      85      95      83      81      85      86
      83      81      85      95      84      81      85      86
      84      81      85      95      85      86      89      90
      85      86      89      91      85      86      89      92
      85      95      92      89      85      95      92      93
      85      95      92      94      86      85      95      92
      86      85      95      96      86      89      92      93
      86      89      92      94      86      89      92      95
      87      86      85      95      87      86      89      90
      87      86      89      91      87      86      89      92
      88      86      85      95      88      86      89      90
      88      86      89      91      88      86      89      92
      89      86      85      95      89      92      95      96
      90      89      92      93      90      89      92      94
      90      89      92      95      91      89      92      93
      91      89      92      94      91      89      92      95
      93      92      95      96      94      92      95      96
      97     101     102     103      97     101     102     104
      97     101     102     105      97     101     111     108
      97     101     111     112      98      97     101     102
      98      97     101     111      99      97     101     102
      99      97     101     111     100      97     101     102
     100      97     101     111     101     102     105     106
     101     102     105     107     101     102     105     108
     101     111     108     105     101     111     108     109
     101     111     108     110     102     101     111     108
     102     101     111     112     102     105     108     109
     102     105     108     110     102     105     108     111
     103     102     101     111     103     102     105     106
     103     102     105     107     103     102     105     108
     104     102     101     111     104     102     105     106
     104     102     105     107     104     102     105     108
     105     102     101     111     105     108     111     112
     106     105     108     109     106     105     108     110
     106     105     108     111     107     105     108     109
     107     105     108     110     107     105     108     111
     109     108     111     112     110     108     111     112
     113     117     118     119     113     117     118     120
     113     117     118     121     113     117     127     124
     113     117     127     128     114     113     117     118
     114     113     117     127     115     113     117     118
     115     113     117     127     116     113     117     118
     116     113     117     127     117     118     121     122
     117     118     121     123     117     118     121     124
     117     127     124     121     117     127     124     125
     117     127     124     126     118     117     127     124
     118     117     127     128     118     121     124     125
     118     121     124     126     118     121     124     127
     119     118     117     127     119     118     121     122
     119     118     121     123     119     118     121     124
     120     118     117     127     120     118     121     122
     120     118     121     123     120     118     121     124
     121     118     117     127     121     124     127     128
     122     121     124     125     122     121     124     126
     122     121     124     127     123     121     124     125
     123     121     124     126     123     121     124     127
     125     124     127     128     126     124     127     128
     129     133     134     135     129     133     134     136
     129     133     134     137     129     133     143     140
     129     133     143     144     130     129     133     134
     130     129     133     143     131     129     133     134
     131     129     133     143     132     129     133     134
     132     129     133     143     133     134     137     138
     133     134     137     139     133     134     137     140
     133     143     140     137     133     143     140     141
     133     143     140     142     134     133     143     140
     134     133     143     144     134     137     140     141
     134     137     140     142     134     137     140     143
     135     134     133     143     135     134     137     138
     135     134     137     139     135     134     137     140
     136     134     133     143     136     134     137     138
     136     134     137     139     136     134     137     140
     137     134     133     143     137     140     143     144
     138     137     140     141     138     137     140     142
     138     137     140     143     139     137     140     141
     139     137     140     142     139     137     140     143
     141     140     143     144     142     140     143     144
     145     149     150     151     145     149     150     152
     145     149     150     153     145     149     159     156
     145     149     159     160     146     145     149     150
     146     145     149     159     147     145     149     150
     147     145     149     159     148     145     149     150
     148     145     149     159     149     150     153     154
     149     150     153     155     149     150     153     156
     149     159     156     153     149     159     156     157
     149     159     156     158     150     149     159     156
     150     149     159     160     150     153     156     157
     150     153     156     158     150     153     156     159
     151     150     149     159     151     150     153     154
     151     150     153     155     151     150     153     156
     152     150     149     159     152     150     153     154
     152     150     153     155     152     150     153     156
     153     150     149     159     153     156     159     160
     154     153     156     157     154     153     156     158
     154     153     156     159     155     153     156     157
     155     153     156     158     155     153     156     159
     157     156     159     160     158     156     159     160
     161     165     166     167     161     165     166     168
     161     165     166     169     161     165     175     172
     161     165     175     176     162     161     165     166
     162     161     165     175     163     161     165     166
     163     161     165     175     164     161     165     166
     164     161     165     175     165     166     169     170
     165     166     169     171     165     166     169     172
     165     175     172     169     165     175     172     173
     165     175     172     174     166     165     175     172
     166     165     175     176     166     169     172     173
     166     169     172     174     166     169     172     175
     167     166     165     175     167     166     169     170
     167     166     169     171     167     166     169     172
     168     166     165     175     168     166     169     170
     168     166     169     171     168     166     169     172
     169     166     165     175     169     172     175     176
     170     169     172     173     170     169     172     174
     170     169     172     175     171     169     172     173
     171     169     172     174     171     169     172     175
     173     172     175     176     174     172     175     176
     177     181     182     183     177     181     182     184
     177     181     182     185     177     181     191     188
     177     181     191     192     178     177     181     182
     178     177     181     191     179     177     181     182
     179     177     181     191     180     177     181     182
     180     177     181     191     181     182     185     186
     181     182     185     187     181     182     185     188
     181     191     188     185     181     191     188     189
     181     191     188     190     182     181     191     188
     182     181     191     192     182     185     188     189
     182     185     188     190     182     185     188     191
     183     182     181     191     183     182     185     186
     183     182     185     187     183     182     185     188
     184     182     181     191     184     182     185     186
     184     182     185     187     184     182     185     188
     185     182     181     191     185     188     191     192
     186     185     188     189     186     185     188     190
     186     185     188     191     187     185     188     189
     187     185     188     190     187     185     188     191
     189     188     191     192     190     188     191     192
     193     197     198     199     193     197     198     200
     193     197     198     201     193     197     207     204
     193     197     207     208     194     193     197     198
     194     193     197     207     195     193     197     198
     195     193     197     207     196     193     197     198
     196     193     197     207     197     198     201     202
     197     198     201     203     197     198     201     204
     197     207     204     201     197     207     204     205
     197     207     204     206     198     197     207     204
     198     197     207     208     198     201     204     205
     198     201     204     206     198     201     204     207
     199     198     197     207     199     198     201     202
     199     198     201     203     199     198     201     204
     200     198     197     207     200     198     201     202
     200     198     201     203     200     198     201     204
     201     198     197     207     201     204     207     208
     202     201     204     205     202     201     204     206
     202     201     204     207     203     201     204     205
     203     201     204     206     203     201     204     207
     205     204     207     208     206     204     207     208
     209     213     214     215     209     213     214     216
     209     213     214     217     209     213     223     220
     209     213     223     224     210     209     213     214
     210     209     213     223     211     209     213     214
     211     209     213     223     212     209     213     214
     212     209     213     223     213     214     217     218
     213     214     217     219     213     214     217     220
     213     223     220     217     213     223     220     221
     213     223     220     222     214     213     223     220
     214     213     223     224     214     217     220     221
     214     217     220     222     214     217     220     223
     215     214     213     223     215     214     217     218
     215     214     217     219     215     214     217     220
     216     214     213     223     216     214     217     218
     216     214     217     219     216     214     217     220
     217     214     213     223     217     220     223     224
     218     217     220     221     218     217     220     222
     218     217     220     223     219     217     220     221
     219     217     220     222     219     217     220     223
     221     220     223     224     222     220     223     224
     225     229     230     231     225     229     230     232
     225     229     230     233     225     229     239     236
     225     229     239     240     226     225     229     230
     226     225     229     239     227     225     229     230
     227     225     229     239     228     225     229     230
     228     225     229     239     229     230     233     234
     229     230     233     235     229     230     233     236
     229     239     236     233     229     239     236     237
     229     239     236     238     230     229     239     236
     230     229     239     240     230     233     236     237
     230     233     236     238     230     233     236     239
     231     230     229     239     231     230     233     234
     231     230     233     235     231     230     233     236
     232     230     229     239     232     230     233     234
     232     230     233     235     232     230     233     236
     233     230     229     239     233     236     239     240
     234     233     236     237     234     233     236     238
     234     233     236     239     235     233     236     237
     235     233     236     238     235     233     236     239
     237     236     239     240     238     236     239     240
     241     245     246     247     241     245     246     248
     241     245     246     249     241     245     255     252
     241     245     255     256     242     241     245     246
     242     241     245     255     243     241     245     246
     243     241     245     255     244     241     245     246
     244     241     245     255     245     246     249     250
     245     246     249     251     245     246     249     252
     245     255     252     249     245     255     252     253
     245     255     252     254     246     245     255     252
     246     245     255     256     246     249     252     253
     246     249     252     254     246     249     252     255
     247     246     245     255     247     246     249     250
     247     246     249     251     247     246     249     252
     248     246     245     255     248     246     249     250
     248     246     249     251     248     246     249     252
     249     246     245     255     249     252     255     256
     250     249     252     253     250     249     252     254
     250     249     252     255     251     249     252     253
     251     249     252     254     251     249     252     255
     253     252     255     256     254     252     255     256
     257     261     262     263     257     261     262     264
     257     261     262     265     257     261     271     268
     257     261     271     272     258     257     261     262
     258     257     261     271     259     257     261     262
     259     257     261     271     260     257     261     262
     260     257     261     271     261     262     265     266
     261     262     265     267     261     262     265     268
     261     271     268     265     261     271     268     269
     261     271     268     270     262     261     271     268
     262     261     271     272     262     265     268     269
     262     265     268     270     262     265     268     271
     263     262     261     271     263     262     265     266
     263     262     265     267     263     262     265     268
     264     262     261     271     264     262     265     266
     264     262     265     267     264     262     265     268
     265     262     261     271     265     268     271     272
     266     265     268     269     266     265     268     270
     266     265     268     271     267     265     268     269
     267     265     268     270     267     265     268     271
     269     268     271     272     270     268     271     272
     273     277     278     279     273     277     278     280
     273     277     278     281     273     277     287     284
     273     277     287     288     274     273     277     278
     274     273     277     287     275     273     277     278
     275     273     277     287     276     273     277     278
     276     273     277     287     277     278     281     282
     277     278     281     283     277     278     281     284
     277     287     284     281     277     287     284     285
     277     287     284     286     278     277     287     284
     278     277     287     288     278     281     284     285
     278     281     284     286     278     281     284     287
     279     278     277     287     279     278     281     282
     279     278     281     283     279     278     281     284
     280     278     277     287     280     278     281     282
     280     278     281     283     280     278     281     284
     281     278     277     287     281     284     287     288
     282     281     284     285     282     281     284     286
     282     281     284     287     283     281     284     285
     283     281     284     286     283     281     284     287
     285     284     287     288     286     284     287     288
     289     293     294     295     289     293     294     296
     289     293     294     297     289     293     303     300
     289     293     303     304     290     289     293     294
     290     289     293     303     291     289     293     294
     291     289     293     303     292     289     293     294
     292     289     293     303     293     294     297     298
     293     294     297     299     293     294     297     300
     293     303     300     297     293     303     300     301
     293     303     300     302     294     293     303     300
     294     293     303     304     294     297     300     301
     294     297     300     302     294     297     300     303
     295     294     293     303     295     294     297     298
     295     294     297     299     295     294     297     300
     296     294     293     303     296     294     297     298
     296     294     297     299     296     294     297     300
     297     294     293     303     297     300     303     304
     298     297     300     301     298     297     300     302
     298     297     300     303     299     297     300     301
     299     297     300     302     299     297     300     303
     301     300     303     304     302     300     303     304
     305     309     310     311     305     309     310     312
     305     309     310     313     305     309     319     316
     305     309     319     320     306     305     309     310
     306     305     309     319     307     305     309     310
     307     305     309     319     308     305     309     310
     308     305     309     319     309     310     313     314
     309     310     313     315     309     310     313     316
     309     319     316     313     309     319     316     317
     309     319     316     318     310     309     319     316
     310     309     319     320     310     313     316     317
     310     313     316     318     310     313     316     319
     311     310     309     319     311     310     313     314
     311     310     313     315     311     310     313     316
     312     310     309     319     312     310     313     314
     312     310     313     315     312     310     313     316
     313     310     309     319     313     316     319     320
     314     313     316     317     314     313     316     318
     314     313     316     319     315     313     316     317
     315     313     316     318     315     313     316     319
     317     316     319     320     318     316     319     320
     321     325     326     327     321     325     326     328
     321     325     326     329     321     325     335     332
     321     325     335     336     322     321     325     326
     322     321     325     335     323     321     325     326
     323     321     325     335     324     321     325     326
     324     321     325     335     325     326     329     330
     325     326     329     331     325     326     329     332
     325     335     332     329     325     335     332     333
     325     335     332     334     326     325     335     332
     326     325     335     336     326     329     332     333
     326     329     332     334     326     329     332     335
     327     326     325     335     327     326     329     330
     327     326     329     331     327     326     329     332
     328     326     325     335     328     326     329     330
     328     326     329     331     328     326     329     332
     329     326     325     335     329     332     335     336
     330     329     332     333     330     329     332     334
     330     329     332     335     331     329     332     333
     331     329     332     334     331     329     332     335
     333     332     335     336     334     332     335     336
     337     341     342     343     337     341     342     344
     337     341     342     345     337     341     351     348
     337     341     351     352     338     337     341     342
     338     337     341     351     339     337     341     342
     339     337     341     351     340     337     341     342
     340     337     341     351     341     342     345     346
     341     342     345     347     341     342     345     348
     341     351     348     345     341     351     348     349
     341     351     348     350     342     341     351     348
     342     341     351     352     342     345     348     349
     342     345     348     350     342     345     348     351
     343     342     341     351     343     342     345     346
     343     342     345     347     343     342     345     348
     344     342     341     351     344     342     345     346
     344     342     345     347     344     342     345     348
     345     342     341     351     345     348     351     352
     346     345     348     349     346     345     348     350
     346     345     348     351     347     345     348     349
     347     345     348     350     347     345     348     351
     349     348     351     352     350     348     351     352
     353     357     358     359     353     357     358     360
     353     357     358     361     353     357     367     364
     353     357     367     368     354     353     357     358
     354     353     357     367     355     353     357     358
     355     353     357     367     356     353     357     358
     356     353     357     367     357     358     361     362
     357     358     361     363     357     358     361     364
     357     367     364     361     357     367     364     365
     357     367     364     366     358     357     367     364
     358     357     367     368     358     361     364     365
     358     361     364     366     358     361     364     367
     359     358     357     367     359     358     361     362
     359     358     361     363     359     358     361     364
     360     358     357     367     360     358     361     362
     360     358     361     363     360     358     361     364
     361     358     357     367     361     364     367     368
     362     361     364     365     362     361     364     366
     362     361     364     367     363     361     364     365
     363     361     364     366     363     361     364     367
     365     364     367     368     366     364     367     368
     369     373     374     375     369     373     374     376
     369     373     374     377     369     373     383     380
     369     373     383     384     370     369     373     374
     370     369     373     383     371     369     373     374
     371     369     373     383     372     369     373     374
     372     369     373     383     373     374     377     378
     373     374     377     379     373     374     377     380
     373     383     380     377     373     383     380     381
     373     383     380     382     374     373     383     380
     374     373     383     384     374     377     380     381
     374     377     380     382     374     377     380     383
     375     374     373     383     375     374     377     378
     375     374     377     379     375     374     377     380
     376     374     373     383     376     374     377     378
     376     374     377     379     376     374     377     380
     377     374     373     383     377     380     383     384
     378     377     380     381     378     377     380     382
     378     377     380     383     379     377     380     381
     379     377     380     382     379     377     380     383
     381     380     383     384     382     380     383     384
     385     389     390     391     385     389     390     392
     385     389     390     393     385     389     399     396
     385     389     399     400     386     385     389     390
     386     385     389     399     387     385     389     390
     387     385     389     399     388     385     389     390
     388     385     389     399     389     390     393     394
     389     390     393     395     389     390     393     396
     389     399     396     393     389     399     396     397
     389     399     396     398     390     389     399     396
     390     389     399     400     390     393     396     397
     390     393     396     398     390     393     396     399
     391     390     389     399     391     390     393     394
     391     390     393     395     391     390     393     396
     392     390     389     399     392     390     393     394
     392     390     393     395     392     390     393     396
     393     390     389     399     393     396     399     400
     394     393     396     397     394     393     396     398
     394     393     396     399     395     393     396     397
     395     393     396     398     395     393     396     399
     397     396     399     400     398     396     399     400
     401     405     406     407     401     405     406     408
     401     405     406     409     401     405     415     412
     401     405     415     416     402     401     405     406
     402     401     405     415     403     401     405     406
     403     401     405     415     404     401     405     406
     404     401     405     415     405     406     409     410
     405     406     409     411     405     406     409     412
     405     415     412     409     405     415     412     413
     405     415     412     414     406     405     415     412
     406     405     415     416     406     409     412     413
     406     409     412     414     406     409     412     415
     407     406     405     415     407     406     409     410
     407     406     409     411     407     406     409     412
     408     406     405     415     408     406     409     410
     408     406     409     411     408     406     409     412
     409     406     405     415     409     412     415     416
     410     409     412     413     410     409     412     414
     410     409     412     415     411     409     412     413
     411     409     412     414     411     409     412     415
     413     412     415     416     414     412     415     416
     417     421     422     423     417     421     422     424
     417     421     422     425     417     421     431     428
     417     421     431     432     418     417     421     422
     418     417     421     431     419     417     421     422
     419     417     421     431     420     417     421     422
     420     417     421     431     421     422     425     426
     421     422     425     427     421     422     425     428
     421     431     428     425     421     431     428     429
     421     431     428     430     422     421     431     428
     422     421     431     432     422     425     428     429
     422     425     428     430     422     425     428     431
     423     422     421     431     423     422     425     426
     423     422     425     427     423     422     425     428
     424     422     421     431     424     422     425     426
     424     422     425     427     424     422     425     428
     425     422     421     431     425     428     431     432
     426     425     428     429     426     425     428     430
     426     425     428     431     427     425     428     429
     427     425     428     430     427     425     428     431
     429     428     431     432     430     428     431     432
     433     437     438     439     433     437     438     440
     433     437     438     441     433     437     447     444
     433     437     447     448     434     433     437     438
     434     433     437     447     435     433     437     438
     435     433     437     447     436     433     437     438
     436     433     437     447     437     438     441     442
     437     438     441     443     437     438     441     444
     437     447     444     441     437     447     444     445
     437     447     444     446     438     437     447     444
     438     437     447     448     438     441     444     445
     438     441     444     446     438     441     444     447
     439     438     437     447     439     438     441     442
     439     438     441     443     439     438     441     444
     440     438     437     447     440     438     441     442
     440     438     441     443     440     438     441     444
     441     438     437     447     441     444     447     448
     442     441     444     445     442     441     444     446
     442     441     444     447     443     441     444     445
     443     441     444     446     443     441     444     447
     445     444     447     448     446     444     447     448
     449     453     454     455     449     453     454     456
     449     453     454     457     449     453     463     460
     449     453     463     464     450     449     453     454
     450     449     453     463     451     449     453     454
     451     449     453     463     452     449     453     454
     452     449     453     463     453     454     457     458
     453     454     457     459     453     454     457     460
     453     463     460     457     453     463     460     461
     453     463     460     462     454     453     463     460
     454     453     463     464     454     457     460     461
     454     457     460     462     454     457     460     463
     455     454     453     463     455     454     457     458
     455     454     457     459     455     454     457     460
     456     454     453     463     456     454     457     458
     456     454     457     459     456     454     457     460
     457     454     453     463     457     460     463     464
     458     457     460     461     458     457     460     462
     458     457     460     463     459     457     460     461
     459     457     460     462     459     457     460     463
     461     460     463     464     462     460     463     464
     465     469     470     471     465     469     470     472
     465     469     470     473     465     469     479     476
     465     469     479     480     466     465     469     470
     466     465     469     479     467     465     469     470
     467     465     469     479     468     465     469     470
     468     465     469     479     469     470     473     474
     469     470     473     475     469     470     473     476
     469     479     476     473     469     479     476     477
     469     479     476     478     470     469     479     476
     470     469     479     480     470     473     476     477
     470     473     476     478     470     473     476     479
     471     470     469     479     471     470     473     474
     471     470     473     475     471     470     473     476
     472     470     469     479     472     470     473     474
     472     470     473     475     472     470     473     476
     473     470     469     479     473     476     479     480
     474     473     476     477     474     473     476     478
     474     473     476     479     475     473     476     477
     475     473     476     478     475     473     476     479
     477     476     479     480     478     476     479     480
     481     485     486     487     481     485     486     488
     481     485     486     489     481     485     495     492
     481     485     495     496     482     481     485     486
     482     481     485     495     483     481     485     486
     483     481     485     495     484     481     485     486
     484     481     485     495     485     486     489     490
     485     486     489     491     485     486     489     492
     485     495     492     489     485     495     492     493
     485     495     492     494     486     485     495     492
     486     485     495     496     486     489     492     493
     486     489     492     494     486     489     492     495
     487     486     485     495     487     486     489     490
     487     486     489     491     487     486     489     492
     488     486     485     495     488     486     489     490
     488     486     489     491     488     486     489     492
     489     486     485     495     489     492     495     496
     490     489     492     493     490     489     492     494
     490     489     492     495     491     489     492     493
     491     489     492     494     491     489     492     495
     493     492     495     496     494     492     495     496
     497     501     502     503     497     501     502     504
     497     501     502     505     497     501     511     508
     497     501     511     512     498     497     501     502
     498     497     501     511     499     497     501     502
     499     497     501     511     500     497     501     502
     500     497     501     511     501     502     505     506
     501     502     505     507     501     502     505     508
     501     511     508     505     501     511     508     509
     501     511     508     510     502     501     511     508
     502     501     511     512     502     505     508     509
     502     505     508     510     502     505     508     511
     503     502     501     511     503     502     505     506
     503     502     505     507     503     502     505     508
     504     502     501     511     504     502     505     506
     504     502     505     507     504     502     505     508
     505     502     501     511     505     508     511     512
     506     505     508     509     506     505     508     510
     506     505     508     511     507     505     508     509
     507     505     508     510     507     505     508     511
     509     508     511     512     510     508     511     512
     513     517     518     519     513     517     518     520
     513     517     518     521     513     517     527     524
     513     517     527     528     514     513     517     518
     514     513     517     527     515     513     517     518
     515     513     517     527     516     513     517     518
     516     513     517     527     517     518     521     522
     517     518     521     523     517     518     521     524
     517     527     524     521     517     527     524     525
     517     527     524     526     518     517     527     524
     518     517     527     528     518     521     524     525
     518     521     524     526     518     521     524     527
     519     518     517     527     519     518     521     522
     519     518     521     523     519     518     521     524
     520     518     517     527     520     518     521     522
     520     518     521     523     520     518     521     524
     521     518     517     527     521     524     527     528
     522     521     524     525     522     521     524     526
     522     521     524     527     523     521     524     525
     523     521     524     526     523     521     524     527
     525     524     527     528     526     524     527     528
     529     533     534     535     529     533     534     536
     529     533     534     537     529     533     543     540
     529     533     543     544     530     529     533     534
     530     529     533     543     531     529     533     534
     531     529     533     543     532     529     533     534
     532     529     533     543     533     534     537     538
     533     534     537     539     533     534     537     540
     533     543     540     537     533     543     540     541
     533     543     540     542     534     533     543     540
     534     533     543     544     534     537     540     541
     534     537     540     542     534     537     540     543
     535     534     533     543     535     534     537     538
     535     534     537     539     535     534     537     540
     536     534     533     543     536     534     537     538
     536     534     537     539     536     534     537     540
     537     534     533     543     537     540     543     544
     538     537     540     541     538     537     540     542
     538     537     540     543     539     537     540     541
     539     537     540     542     539     537     540     543
     541     540     543     544     542     540     543     544
     545     549     550     551     545     549     550     552
     545     549     550     553     545     549     559     556
     545     549     559     560     546     545     549     550
     546     545     549     559     547     545     549     550
     547     545     549     559     548     545     549     550
     548     545     549     559     549     550     553     554
     549     550     553     555     549     550     553     556
     549     559     556     553     549     559     556     557
     549     559     556     558     550     549     559     556
     550     549     559     560     550     553     556     557
     550     553     556     558     550     553     556     559
     551     550     549     559     551     550     553     554
     551     550     553     555     551     550     553     556
     552     550     549     559     552     550     553     554
     552     550     553     555     552     550     553     556
     553     550     549     559     553     556     559     560
     554     553     556     557     554     553     556     558
     554     553     556     559     555     553     556     557
     555     553     556     558     555     553     556     559
     557     556     559     560     558     556     559     560
     561     565     566     567     561     565     566     568
     561     565     566     569     561     565     575     572
     561     565     575     576     562     561     565     566
     562     561     565     575     563     561     565     566
     563     561     565     575     564     561     565     566
     564     561     565     575     565     566     569     570
     565     566     569     571     565     566     569     572
     565     575     572     569     565     575     572     573
     565     575     572     574     566     565     575     572
     566     565     575     576     566     569     572     573
     566     569     572     574     566     569     572     575
     567     566     565     575     567     566     569     570
     567     566     569     571     567     566     569     572
     568     566     565     575     568     566     569     570
     568     566     569     571     568     566     569     572
     569     566     565     575     569     572     575     576
     570     569     572     573     570     569     572     574
     570     569     572     575     571     569     572     573
     571     569     572     574     571     569     572     575
     573     572     575     576     574     572     575     576
     577     581     582     583     577     581     582     584
     577     581     582     585     577     581     591     588
     577     581     591     592     578     577     581     582
     578     577     581     591     579     577     581     582
     579     577     581     591     580     577     581     582
     580     577     581     591     581     582     585     586
     581     582     585     587     581     582     585     588
     581     591     588     585     581     591     588     589
     581     591     588     590     582     581     591     588
     582     581     591     592     582     585     588     589
     582     585     588     590     582     585     588     591
     583     582     581     591     583     582     585     586
     583     582     585     587     583     582     585     588
     584     582     581     591     584     582     585     586
     584     582     585     587     584     582     585     588
     585     582     581     591     585     588     591     592
     586     585     588     589     586     585     588     590
     586     585     588     591     587     585     588     589
     587     585     588     590     587     585     588     591
     589     588     591     592     590     588     591     592
     593     597     598     599     593     597     598     600
     593     597     598     601     593     597     607     604
     593     597     607     608     594     593     597     598
     594     593     597     607     595     593     597     598
     595     593     597     607     596     593     597     598
     596     593     597     607     597     598     601     602
     597     598     601     603     597     598     601     604
     597     607     604     601     597     607     604     605
     597     607     604     606     598     597     607     604
     598     597     607     608     598     601     604     605
     598     601     604     606     598     601     604     607
     599     598     597     607     599     598     601     602
     599     598     601     603     599     598     601     604
     600     598     597     607     600     598     601     602
     600     598     601     603     600     598     601     604
     601     598     597     607     601     604     607     608
     602     601     604     605     602     601     604     606
     602     601     604     607     603     601     604     605
     603     601     604     606     603     601     604     607
     605     604     607     608     606     604     607     608
     609     613     614     615     609     613     614     616
     609     613     614     617     609     613     623     620
     609     613     623     624     610     609     613     614
     610     609     613     623     611     609     613     614
     611     609     613     623     612     609     613     614
     612     609     613     623     613     614     617     618
     613     614     617     619     613     614     617     620
     613     623     620     617     613     623     620     621
     613     623     620     622     614     613     623     620
     614     613     623     624     614     617     620     621
     614     617     620     622     614     617     620     623
     615     614     613     623     615     614     617     618
     615     614     617     619     615     614     617     620
     616     614     613     623     616     614     617     618
     616     614     617     619     616     614     617     620
     617     614     613     623     617     620     623     624
     618     617     620     621     618     617     620     622
     618     617     620     623     619     617     620     621
     619     617     620     622     619     617     620     623
     621     620     623     624     622     620     623     624
     625     629     630     631     625     629     630     632
     625     629     630     633     625     629     639     636
     625     629     639     640     626     625     629     630
     626     625     629     639     627     625     629     630
     627     625     629     639     628     625     629     630
     628     625     629     639     629     630     633     634
     629     630     633     635     629     630     633     636
     629     639     636     633     629     639     636     637
     629     639     636     638     630     629     639     636
     630     629     639     640     630     633     636     637
     630     633     636     638     630     633     636     639
     631     630     629     639     631     630     633     634
     631     630     633     635     631     630     633     636
     632     630     629     639     632     630     633     634
     632     630     633     635     632     630     633     636
     633     630     629     639     633     636     639     640
     634     633     636     637     634     633     636     638
     634     633     636     639     635     633     636     637
     635     633     636     638     635     633     636     639
     637     636     639     640     638     636     639     640
     641     645     646     647     641     645     646     648
     641     645     646     649     641     645     655     652
     641     645     655     656     642     641     645     646
     642     641     645     655     643     641     645     646
     643     641     645     655     644     641     645     646
     644     641     645     655     645     646     649     650
     645     646     649     651     645     646     649     652
     645     655     652     649     645     655     652     653
     645     655     652     654     646     645     655     652
     646     645     655     656     646     649     652     653
     646     649     652     654     646     649     652     655
     647     646     645     655     647     646     649     650
     647     646     649     651     647     646     649     652
     648     646     645     655     648     646     649     650
     648     646     649     651     648     646     649     652
     649     646     645     655     649     652     655     656
     650     649     652     653     650     649     652     654
     650     649     652     655     651     649     652     653
     651     649     652     654     651     649     652     655
     653     652     655     656     654     652     655     656
     657     661     662     663     657     661     662     664
     657     661     662     665     657     661     671     668
     657     661     671     672     658     657     661     662
     658     657     661     671     659     657     661     662
     659     657     661     671     660     657     661     662
     660     657     661     671     661     662     665     666
     661     662     665     667     661     662     665     668
     661     671     668     665     661     671     668     669
     661     671     668     670     662     661     671     668
     662     661     671     672     662     665     668     669
     662     665     668     670     662     665     668     671
     663     662     661     671     663     662     665     666
     663     662     665     667     663     662     665     668
     664     662     661     671     664     662     665     666
     664     662     665     667     664     662     665     668
     665     662     661     671     665     668     671     672
     666     665     668     669     666     665     668     670
     666     665     668     671     667     665     668     669
     667     665     668     670     667     665     668     671
     669     668     671     672     670     668     671     672
     673     677     678     679     673     677     678     680
     673     677     678     681     673     677     687     684
     673     677     687     688     674     673     677     678
     674     673     677     687     675     673     677     678
     675     673     677     687     676     673     677     678
     676     673     677     687     677     678     681     682
     677     678     681     683     677     678     681     684
     677     687     684     681     677     687     684     685
     677     687     684     686     678     677     687     684
     678     677     687     688     678     681     684     685
     678     681     684     686     678     681     684     687
     679     678     677     687     679     678     681     682
     679     678     681     683     679     678     681     684
     680     678     677     687     680     678     681     682
     680     678     681     683     680     678     681     684
     681     678     677     687     681     684     687     688
     682     681     684     685     682     681     684     686
     682     681     684     687     683     681     684     685
     683     681     684     686     683     681     684     687
     685     684     687     688     686     684     687     688
     689     693     694     695     689     693     694     696
     689     693     694     697     689     693     703     700
     689     693     703     704     690     689     693     694
     690     689     693     703     691     689     693     694
     691     689     693     703     692     689     693     694
     692     689     693     703     693     694     697     698
     693     694     697     699     693     694     697     700
     693     703     700     697     693     703     700     701
     693     703     700     702     694     693     703     700
     694     693     703     704     694     697     700     701
     694     697     700     702     694     697     700     703
     695     694     693     703     695     694     697     698
     695     694     697     699     695     694     697     700
     696     694     693     703     696     694     697     698
     696     694     697     699     696     694     697     700
     697     694     693     703     697     700     703     704
     698     697     700     701     698     697     700     702
     698     697     700     703     699     697     700     701
     699     697     700     702     699     697     700     703
     701     700     703     704     702     700     703     704
     705     709     710     711     705     709     710     712
     705     709     710     713     705     709     719     716
     705     709     719     720     706     705     709     710
     706     705     709     719     707     705     709     710
     707     705     709     719     708     705     709     710
     708     705     709     719     709     710     713     714
     709     710     713     715     709     710     713     716
     709     719     716     713     709     719     716     717
     709     719     716     718     710     709     719     716
     710     709     719     720     710     713     716     717
     710     713     716     718     710     713     716     719
     711     710     709     719     711     710     713     714
     711     710     713     715     711     710     713     716
     712     710     709     719     712     710     713     714
     712     710     713     715     712     710     713     716
     713     710     709     719     713     716     719     720
     714     713     716     717     714     713     716     718
     714     713     716     719     715     713     716     717
     715     713     716     718     715     713     716     719
     717     716     719     720     718     716     719     720
     721     725     726     727     721     725     726     728
     721     725     726     729     721     725     735     732
     721     725     735     736     722     721     725     726
     722     721     725     735     723     721     725     726
     723     721     725     735     724     721     725     726
     724     721     725     735     725     726     729     730
     725     726     729     731     725     726     729     732
     725     735     732     729     725     735     732     733
     725     735     732     734     726     725     735     732
     726     725     735     736     726     729     732     733
     726     729     732     734     726     729     732     735
     727     726     725     735     727     726     729     730
     727     726     729     731     727     726     729     732
     728     726     725     735     728     726     729     730
     728     726     729     731     728     726     729     732
     729     726     725     735     729     732     735     736
     730     729     732     733     730     729     732     734
     730     729     732     735     731     729     732     733
     731     729     732     734     731     729     732     735
     733     732     735     736     734     732     735     736
     737     741     742     743     737     741     742     744
     737     741     742     745     737     741     751     748
     737     741     751     752     738     737     741     742
     738     737     741     751     739     737     741     742
     739     737     741     751     740     737     741     742
     740     737     741     751     741     742     745     746
     741     742     745     747     741     742     745     748
     741     751     748     745     741     751     748     749
     741     751     748     750     742     741     751     748
     742     741     751     752     742     745     748     749
     742     745     748     750     742     745     748     751
     743     742     741     751     743     742     745     746
     743     742     745     747     743     742     745     748
     744     742     741     751     744     742     745     746
     744     742     745     747     744     742     745     748
     745     742     741     751     745     748     751     752
     746     745     748     749     746     745     748     750
     746     745     748     751     747     745     748     749
     747     745     748     750     747     745     748     751
     749     748     751     752     750     748     751     752
     753     757     758     759     753     757     758     760
     753     757     758     761     753     757     767     764
     753     757     767     768     754     753     757     758
     754     753     757     767     755     753     757     758
     755     753     757     767     756     753     757     758
     756     753     757     767     757     758     761     762
     757     758     761     763     757     758     761     764
     757     767     764     761     757     767     764     765
     757     767     764     766     758     757     767     764
     758     757     767     768     758     761     764     765
     758     761     764     766     758     761     764     767
     759     758     757     767     759     758     761     762
     759     758     761     763     759     758     761     764
     760     758     757     767     760     758     761     762
     760     758     761     763     760     758     761     764
     761     758     757     767     761     764     767     768
     762     761     764     765     762     761     764     766
     762     761     764     767     763     761     764     765
     763     761     764     766     763     761     764     767
     765     764     767     768     766     764     767     768
     769     773     774     775     769     773     774     776
     769     773     774     777     769     773     783     780
     769     773     783     784     770     769     773     774
     770     769     773     783     771     769     773     774
     771     769     773     783     772     769     773     774
     772     769     773     783     773     774     777     778
     773     774     777     779     773     774     777     780
     773     783     780     777     773     783     780     781
     773     783     780     782     774     773     783     780
     774     773     783     784     774     777     780     781
     774     777     780     782     774     777     780     783
     775     774     773     783     775     774     777     778
     775     774     777     779     775     774     777     780
     776     774     773     783     776     774     777     778
     776     774     777     779     776     774     777     780
     777     774     773     783     777     780     783     784
     778     777     780     781     778     777     780     782
     778     777     780     783     779     777     780     781
     779     777     780     782     779     777     780     783
     781     780     783     784     782     780     783     784
     785     789     790     791     785     789     790     792
     785     789     790     793     785     789     799     796
     785     789     799     800     786     785     789     790
     786     785     789     799     787     785     789     790
     787     785     789     799     788     785     789     790
     788     785     789     799     789     790     793     794
     789     790     793     795     789     790     793     796
     789     799     796     793     789     799     796     797
     789     799     796     798     790     789     799     796
     790     789     799     800     790     793     796     797
     790     793     796     798     790     793     796     799
     791     790     789     799     791     790     793     794
     791     790     793     795     791     790     793     796
     792     790     789     799     792     790     793     794
     792     790     793     795     792     790     793     796
     793     790     789     799     793     796     799     800
     794     793     796     797     794     793     796     798
     794     793     796     799     795     793     796     797
     795     793     796     798     795     793     796     799
     797     796     799     800     798     796     799     800
     801     805     806     807     801     805     806     808
     801     805     806     809     801     805     815     812
     801     805     815     816     802     801     805     806
     802     801     805     815     803     801     805     806
     803     801     805     815     804     801     805     806
     804     801     805     815     805     806     809     810
     805     806     809     811     805     806     809     812
     805     815     812     809     805     815     812     813
     805     815     812     814     806     805     815     812
     806     805     815     816     806     809     812     813
     806     809     812     814     806     809     812     815
     807     806     805     815     807     806     809     810
     807     806     809     811     807     806     809     812
     808     806     805     815     808     806     809     810
     808     806     809     811     808     806     809     812
     809     806     805     815     809     812     815     816
     810     809     812     813     810     809     812     814
     810     809     812     815     811     809     812     813
     811     809     812     814     811     809     812     815
     813     812     815     816     814     812     815     816
     817     821     822     823     817     821     822     824
     817     821     822     825     817     821     831     828
     817     821     831     832     818     817     821     822
     818     817     821     831     819     817     821     822
     819     817     821     831     820     817     821     822
     820     817     821     831     821     822     825     826
     821     822     825     827     821     822     825     828
     821     831     828     825     821     831     828     829
     821     831     828     830     822     821     831     828
     822     821     831     832     822     825     828     829
     822     825     828     830     822     825     828     831
     823     822     821     831     823     822     825     826
     823     822     825     827     823     822     825     828
     824     822     821     831     824     822     825     826
     824     822     825     827     824     822     825     828
     825     822     821     831     825     828     831     832
     826     825     828     829     826     825     828     830
     826     825     828     831     827     825     828     829
     827     825     828     830     827     825     828     831
     829     828     831     832     830     828     831     832
     833     837     838     839     833     837     838     840
     833     837     838     841     833     837     847     844
     833     837     847     848     834     833     837     838
     834     833     837     847     835     833     837     838
     835     833     837     847     836     833     837     838
     836     833     837     847     837     838     841     842
     837     838     841     843     837     838     841     844
     837     847     844     841     837     847     844     845
     837     847     844     846     838     837     847     844
     838     837     847     848     838     841     844     845
     838     841     844     846     838     841     844     847
     839     838     837     847     839     838     841     842
     839     838     841     843     839     838     841     844
     840     838     837     847     840     838     841     842
     840     838     841     843     840     838     841     844
     841     838     837     847     841     844     847     848
     842     841     844     845     842     841     844     846
     842     841     844     847     843     841     844     845
     843     841     844     846     843     841     844     847
     845     844     847     848     846     844     847     848
     849     853     854     855     849     853     854     856
     849     853     854     857     849     853     863     860
     849     853     863     864     850     849     853     854
     850     849     853     863     851     849     853     854
     851     849     853     863     852     849     853     854
     852     849     853     863     853     854     857     858
     853     854     857     859     853     854     857     860
     853     863     860     857     853     863     860     861
     853     863     860     862     854     853     863     860
     854     853     863     864     854     857     860     861
     854     857     860     862     854     857     860     863
     855     854     853     863     855     854     857     858
     855     854     857     859     855     854     857     860
     856     854     853     863     856     854     857     858
     856     854     857     859     856     854     857     860
     857     854     853     863     857     860     863     864
     858     857     860     861     858     857     860     862
     858     857     860     863     859     857     860     861
     859     857     860     862     859     857     860     863
     861     860     863     864     862     860     863     864
     865     869     870     871     865     869     870     872
     865     869     870     873     865     869     879     876
     865     869     879     880     866     865     869     870
     866     865     869     879     867     865     869     870
     867     865     869     879     868     865     869     870
     868     865     869     879     869     870     873     874
     869     870     873     875     869     870     873     876
     869     879     876     873     869     879     876     877
     869     879     876     878     870     869     879     876
     870     869     879     880     870     873     876     877
     870     873     876     878     870     873     876     879
     871     870     869     879     871     870     873     874
     871     870     873     875     871     870     873     876
     872     870     869     879     872     870     873     874
     872     870     873     875     872     870     873     876
     873     870     869     879     873     876     879     880
     874     873     876     877     874     873     876     878
     874     873     876     879     875     873     876     877
     875     873     876     878     875     873     876     879
     877     876     879     880     878     876     879     880
     881     885     886     887     881     885     886     888
     881     885     886     889     881     885     895     892
     881     885     895     896     882     881     885     886
     882     881     885     895     883     881     885     886
     883     881     885     895     884     881     885     886
     884     881     885     895     885     886     889     890
     885     886     889     891     885     886     889     892
     885     895     892     889     885     895     892     893
     885     895     892     894     886     885     895     892
     886     885     895     896     886     889     892     893
     886     889     892     894     886     889     892     895
     887     886     885     895     887     886     889     890
     887     886     889     891     887     886     889     892
     888     886     885     895     888     886     889     890
     888     886     889     891     888     886     889     892
     889     886     885     895     889     892     895     896
     890     889     892     893     890     889     892     894
     890     889     892     895     891     889     892     893
     891     889     892     894     891     889     892     895
     893     892     895     896     894     892     895     896
     897     901     902     903     897     901     902     904
     897     901     902     905     897     901     911     908
     897     901     911     912     898     897     901     902
     898     897     901     911     899     897     901     902
     899     897     901     911     900     897     901     902
     900     897     901     911     901     902     905     906
     901     902     905     907     901     902     905     908
     901     911     908     905     901     911     908     909
     901     911     908     910     902     901     911     908
     902     901     911     912     902     905     908     909
     902     905     908     910     902     905     908     911
     903     902     901     911     903     902     905     906
     903     902     905     907     903     902     905     908
     904     902     901     911     904     902     905     906
     904     902     905     907     904     902     905     908
     905     902     901     911     905     908     911     912
     906     905     908     909     906     905     908     910
     906     905     908     911     907     905     908     909
     907     905     908     910     907     905     908     911
     909     908     911     912     910     908     911     912
     913     917     918     919     913     917     918     920
     913     917     918     921     913     917     927     924
     913     917     927     928     914     913     917     918
     914     913     917     927     915     913     917     918
     915     913     917     927     916     913     917     918
     916     913     917     927     917     918     921     922
     917     918     921     923     917     918     921     924
     917     927     924     921     917     927     924     925
     917     927     924     926     918     917     927     924
     918     917     927     928     918     921     924     925
     918     921     924     926     918     921     924     927
     919     918     917     927     919     918     921     922
     919     918     921     923     919     918     921     924
     920     918     917     927     920     918     921     922
     920     918     921     923     920     918     921     924
     921     918     917     927     921     924     927     928
     922     921     924     925     922     921     924     926
     922     921     924     927     923     921     924     925
     923     921     924     926     923     921     924     927
     925     924     927     928     926     924     927     928
     929     933     934     935     929     933     934     936
     929     933     934     937     929     933     943     940
     929     933     943     944     930     929     933     934
     930     929     933     943     931     929     933     934
     931     929     933     943     932     929     933     934
     932     929     933     943     933     934     937     938
     933     934     937     939     933     934     937     940
     933     943     940     937     933     943     940     941
     933     943     940     942     934     933     943     940
     934     933     943     944     934     937     940     941
     934     937     940     942     934     937     940     943
     935     934     933     943     935     934     937     938
     935     934     937     939     935     934     937     940
     936     934     933     943     936     934     937     938
     936     934     937     939     936     934     937     940
     937     934     933     943     937     940     943     944
     938     937     940     941     938     937     940     942
     938     937     940     943     939     937     940     941
     939     937     940     942     939     937     940     943
     941     940     943     944     942     940     943     944
     945     949     950     951     945     949     950     952
     945     949     950     953     945     949     959     956
     945     949     959     960     946     945     949     950
     946     945     949     959     947     945     949     950
     947     945     949     959     948     945     949     950
     948     945     949     959     949     950     953     954
     949     950     953     955     949     950     953     956
     949     959     956     953     949     959     956     957
     949     959     956     958     950     949     959     956
     950     949     959     960     950     953     956     957
     950     953     956     958     950     953     956     959
     951     950     949     959     951     950     953     954
     951     950     953     955     951     950     953     956
     952     950     949     959     952     950     953     954
     952     950     953     955     952     950     953     956
     953     950     949     959     953     956     959     960
     954     953     956     957     954     953     956     958
     954     953     956     959     955     953     956     957
     955     953     956     958     955     953     956     959
     957     956     959     960     958     956     959     960
     961     965     966     967     961     965     966     968
     961     965     966     969     961     965     975     972
     961     965     975     976     962     961     965     966
     962     961     965     975     963     961     965     966
     963     961     965     975     964     961     965     966
     964     961     965     975     965     966     969     970
     965     966     969     971     965     966     969     972
     965     975     972     969     965     975     972     973
     965     975     972     974     966     965     975     972
     966     965     975     976     966     969     972     973
     966     969     972     974     966     969     972     975
     967     966     965     975     967     966     969     970
     967     966     969     971     967     966     969     972
     968     966     965     975     968     966     969     970
     968     966     969     971     968     966     969     972
     969     966     965     975     969     972     975     976
     970     969     972     973     970     969     972     974
     970     969     972     975     971     969     972     973
     971     969     972     974     971     969     972     975
     973     972     975     976     974     972     975     976
     977     981     982     983     977     981     982     984
     977     981     982     985     977     981     991     988
     977     981     991     992     978     977     981     982
     978     977     981     991     979     977     981     982
     979     977     981     991     980     977     981     982
     980     977     981     991     981     982     985     986
     981     982     985     987     981     982     985     988
     981     991     988     985     981     991     988     989
     981     991     988     990     982     981     991     988
     982     981     991     992     982     985     988     989
     982     985     988     990     982     985     988     991
     983     982     981     991     983     982     985     986
     983     982     985     987     983     982     985     988
     984     982     981     991     984     982     985     986
     984     982     985     987     984     982     985     988
     985     982     981     991     985     988     991     992
     986     985     988     989     986     985     988     990
     986     985     988     991     987     985     988     989
     987     985     988     990     987     985     988     991
     989     988     991     992     990     988     991     992
     993     997     998     999     993     997     998    1000
     993     997     998    1001     993     997    1007    1004
     993     997    1007    1008     994     993     997     998
     994     993     997    1007     995     993     997     998
     995     993     997    1007     996     993     997     998
     996     993     997    1007     997     998    1001    1002
     997     998    1001    1003     997     998    1001    1004
     997    1007    1004    1001     997    1007    1004    1005
     997    1007    1004    1006     998     997    1007    1004
     998     997    1007    1008     998    1001    1004    1005
     998    1001    1004    1006     998    1001    1004    1007
     999     998     997    1007     999     998    1001    1002
     999     998    1001    1003     999     998    1001    1004
    1000     998     997    1007    1000     998    1001    1002
    1000     998    1001    1003    1000     998    1001    1004
    1001     998     997    1007    1001    1004    1007    1008
    1002    1001    1004    1005    1002    1001    1004    1006
    1002    1001    1004    1007    1003    1001    1004    1005
    1003    1001    1004    1006    1003    1001    1004    1007
    1005    1004    1007    1008    1006    1004    1007    1008
    1009    1013    1014    1015    1009    1013    1014    1016
    1009    1013    1014    1017    1009    1013    1023    1020
    1009    1013    1023    1024    1010    1009    1013    1014
    1010    1009    1013    1023    1011    1009    1013    1014
    1011    1009    1013    1023    1012    1009    1013    1014
    1012    1009    1013    1023    1013    1014    1017    1018
    1013    1014    1017    1019    1013    1014    1017    1020
    1013    1023    1020    1017    1013    1023    1020    1021
    1013    1023    1020    1022    1014    1013    1023    1020
    1014    1013    1023    1024    1014    1017    1020    1021
    1014    1017    1020    1022    1014    1017    1020    1023
    1015    1014    1013    1023    1015    1014    1017    1018
    1015    1014    1017    1019    1015    1014    1017    1020
    1016    1014    1013    1023    1016    1014    1017    1018
    1016    1014    1017    1019    1016    1014    1017    1020
    1017    1014    1013    1023    1017    1020    1023    1024
    1018    1017    1020    1021    1018    1017    1020    1022
    1018    1017    1020    1023    1019    1017    1020    1021
    1019    1017    1020    1022    1019    1017    1020    1023
    1021    1020    1023    1024    1022    1020    1023    1024
    1025    1029    1030    1031    1025    1029    1030    1032
    1025    1029    1030    1033    1025    1029    1039    1036
    1025    1029    1039    1040    1026    1025    1029    1030
    1026    1025    1029    1039    1027    1025    1029    1030
    1027    1025    1029    1039    1028    1025    1029    1030
    1028    1025    1029    1039    1029    1030    1033    1034
    1029    1030    1033    1035    1029    1030    1033    1036
    1029    1039    1036    1033    1029    1039    1036    1037
    1029    1039    1036    1038    1030    1029    1039    1036
    1030    1029    1039    1040    1030    1033    1036    1037
    1030    1033    1036    1038    1030    1033    1036    1039
    1031    1030    1029    1039    1031    1030    1033    1034
    1031    1030    1033    1035    1031    1030    1033    1036
    1032    1030    1029    1039    1032    1030    1033    1034
    1032    1030    1033    1035    1032    1030    1033    1036
    1033    1030    1029    1039    1033    1036    1039    1040
    1034    1033    1036    1037    1034    1033    1036    1038
    1034    1033    1036    1039    1035    1033    1036    1037
    1035    1033    1036    1038    1035    1033    1036    1039
    1037    1036    1039    1040    1038    1036    1039    1040
    1041    1045    1046    1047    1041    1045    1046    1048
    1041    1045    1046    1049    1041    1045    1055    1052
    1041    1045    1055    1056    1042    1041    1045    1046
    1042    1041    1045    1055    1043    1041    1045    1046
    1043    1041    1045    1055    1044    1041    1045    1046
    1044    1041    1045    1055    1045    1046    1049    1050
    1045    1046    1049    1051    1045    1046    1049    1052
    1045    1055    1052    1049    1045    1055    1052    1053
    1045    1055    1052    1054    1046    1045    1055    1052
    1046    1045    1055    1056    1046    1049    1052    1053
    1046    1049    1052    1054    1046    1049    1052    1055
    1047    1046    1045    1055    1047    1046    1049    1050
    1047    1046    1049    1051    1047    1046    1049    1052
    1048    1046    1045    1055    1048    1046    1049    1050
    1048    1046    1049    1051    1048    1046    1049    1052
    1049    1046    1045    1055    1049    1052    1055    1056
    1050    1049    1052    1053    1050    1049    1052    1054
    1050    1049    1052    1055    1051    1049    1052    1053
    1051    1049    1052    1054    1051    1049    1052    1055
    1053    1052    1055    1056    1054    1052    1055    1056
    1057    1061    1062    1063    1057    1061    1062    1064
    1057    1061    1062    1065    1057    1061    1071    1068
    1057    1061    1071    1072    1058    1057    1061    1062
    1058    1057    1061    1071    1059    1057    1061    1062
    1059    1057    1061    1071    1060    1057    1061    1062
    1060    1057    1061    1071    1061    1062    1065    1066
    1061    1062    1065    1067    1061    1062    1065    1068
    1061    1071    1068    1065    1061    1071    1068    1069
    1061    1071    1068    1070    1062    1061    1071    1068
    1062    1061    1071    1072    1062    1065    1068    1069
    1062    1065    1068    1070    1062    1065    1068    1071
    1063    1062    1061    1071    1063    1062    1065    1066
    1063    1062    1065    1067    1063    1062    1065    1068
    1064    1062    1061    1071    1064    1062    1065    1066
    1064    1062    1065    1067    1064    1062    1065    1068
    1065    1062    1061    1071    1065    1068    1071    1072
    1066    1065    1068    1069    1066    1065    1068    1070
    1066    1065    1068    1071    1067    1065    1068    1069
    1067    1065    1068    1070    1067    1065    1068    1071
    1069    1068    1071    1072    1070    1068    1071    1072
    1073    1077    1078    1079    1073    1077    1078    1080
    1073    1077    1078    1081    1073    1077    1087    1084
    1073    1077    1087    1088    1074    1073    1077    1078
    1074    1073    1077    1087    1075    1073    1077    1078
    1075    1073    1077    1087    1076    1073    1077    1078
    1076    1073    1077    1087    1077    1078    1081    1082
    1077    1078    1081    1083    1077    1078    1081    1084
    1077    1087    1084    1081    1077    1087    1084    1085
    1077    1087    1084    1086    1078    1077    1087    1084
    1078    1077    1087    1088    1078    1081    1084    1085
    1078    1081    1084    1086    1078    1081    1084    1087
    1079    1078    1077    1087    1079    1078    1081    1082
    1079    1078    1081    1083    1079    1078    1081    1084
    1080    1078    1077    1087    1080    1078    1081    1082
    1080    1078    1081    1083    1080    1078    1081    1084
    1081    1078    1077    1087    1081    1084    1087    1088
    1082    1081    1084    1085    1082    1081    1084    1086
    1082    1081    1084    1087    1083    1081    1084    1085
    1083    1081    1084    1086    1083    1081    1084    1087
    1085    1084    1087    1088    1086    1084    1087    1088
    1089    1093    1094    1095    1089    1093    1094    1096
    1089    1093    1094    1097    1089    1093    1103    1100
    1089    1093    1103    1104    1090    1089    1093    1094
    1090    1089    1093    1103    1091    1089    1093    1094
    1091    1089    1093    1103    1092    1089    1093    1094
    1092    1089    1093    1103    1093    1094    1097    1098
    1093    1094    1097    1099    1093    1094    1097    1100
    1093    1103    1100    1097    1093    1103    1100    1101
    1093    1103    1100    1102    1094    1093    1103    1100
    1094    1093    1103    1104    1094    1097    1100    1101
    1094    1097    1100    1102    1094    1097    1100    1103
    1095    1094    1093    1103    1095    1094    1097    1098
    1095    1094    1097    1099    1095    1094    1097    1100
    1096    1094    1093    1103    1096    1094    1097    1098
    1096    1094    1097    1099    1096    1094    1097    1100
    1097    1094    1093    1103    1097    1100    1103    1104
    1098    1097    1100    1101    1098    1097    1100    1102
    1098    1097    1100    1103    1099    1097    1100    1101
    1099    1097    1100    1102    1099    1097    1100    1103
    1101    1100    1103    1104    1102    1100    1103    1104
    1105    1109    1110    1111    1105    1109    1110    1112
    1105    1109    1110    1113    1105    1109    1119    1116
    1105    1109    1119    1120    1106    1105    1109    1110
    1106    1105    1109    1119    1107    1105    1109    1110
    1107    1105    1109    1119    1108    1105    1109    1110
    1108    1105    1109    1119    1109    1110    1113    1114
    1109    1110    1113    1115    1109    1110    1113    1116
    1109    1119    1116    1113    1109    1119    1116    1117
    1109    1119    1116    1118    1110    1109    1119    1116
    1110    1109    1119    1120    1110    1113    1116    1117
    1110    1113    1116    1118    1110    1113    1116    1119
    1111    1110    1109    1119    1111    1110    1113    1114
    1111    1110    1113    1115    1111    1110    1113    1116
    1112    1110    1109    1119    1112    1110    1113    1114
    1112    1110    1113    1115    1112    1110    1113    1116
    1113    1110    1109    1119    1113    1116    1119    1120
    1114    1113    1116    1117    1114    1113    1116    1118
    1114    1113    1116    1119    1115    1113    1116    1117
    1115    1113    1116    1118    1115    1113    1116    1119
    1117    1116    1119    1120    1118    1116    1119    1120
    1121    1125    1126    1127    1121    1125    1126    1128
    1121    1125    1126    1129    1121    1125    1135    1132
    1121    1125    1135    1136    1122    1121    1125    1126
    1122    1121    1125    1135    1123    1121    1125    1126
    1123    1121    1125    1135    1124    1121    1125    1126
    1124    1121    1125    1135    1125    1126    1129    1130
    1125    1126    1129    1131    1125    1126    1129    1132
    1125    1135    1132    1129    1125    1135    1132    1133
    1125    1135    1132    1134    1126    1125    1135    1132
    1126    1125    1135    1136    1126    1129    1132    1133
    1126    1129    1132    1134    1126    1129    1132    1135
    1127    1126    1125    1135    1127    1126    1129    1130
    1127    1126    1129    1131    1127    1126    1129    1132
    1128    1126    1125    1135    1128    1126    1129    1130
    1128    1126    1129    1131    1128    1126    1129    1132
    1129    1126    1125    1135    1129    1132    1135    1136
    1130    1129    1132    1133    1130    1129    1132    1134
    1130    1129    1132    1135    1131    1129    1132    1133
    1131    1129    1132    1134    1131    1129    1132    1135
    1133    1132    1135    1136    1134    1132    1135    1136
    1137    1141    1142    1143    1137    1141    1142    1144
    1137    1141    1142    1145    1137    1141    1151    1148
    1137    1141    1151    1152    1138    1137    1141    1142
    1138    1137    1141    1151    1139    1137    1141    1142
    1139    1137    1141    1151    1140    1137    1141    1142
    1140    1137    1141    1151    1141    1142    1145    1146
    1141    1142    1145    1147    1141    1142    1145    1148
    1141    1151    1148    1145    1141    1151    1148    1149
    1141    1151    1148    1150    1142    1141    1151    1148
    1142    1141    1151    1152    1142    1145    1148    1149
    1142    1145    1148    1150    1142    1145    1148    1151
    1143    1142    1141    1151    1143    1142    1145    1146
    1143    1142    1145    1147    1143    1142    1145    1148
    1144    1142    1141    1151    1144    1142    1145    1146
    1144    1142    1145    1147    1144    1142    1145    1148
    1145    1142    1141    1151    1145    1148    1151    1152
    1146    1145    1148    1149    1146    1145    1148    1150
    1146    1145    1148    1151    1147    1145    1148    1149
    1147    1145    1148    1150    1147    1145    1148    1151
    1149    1148    1151    1152    1150    1148    1151    1152
    1153    1157    1158    1159    1153    1157    1158    1160
    1153    1157    1158    1161    1153    1157    1167    1164
    1153    1157    1167    1168    1154    1153    1157    1158
    1154    1153    1157    1167    1155    1153    1157    1158
    1155    1153    1157    1167    1156    1153    1157    1158
    1156    1153    1157    1167    1157    1158    1161    1162
    1157    1158    1161    1163    1157    1158    1161    1164
    1157    1167    1164    1161    1157    1167    1164    1165
    1157    1167    1164    1166    1158    1157    1167    1164
    1158    1157    1167    1168    1158    1161    1164    1165
    1158    1161    1164    1166    1158    1161    1164    1167
    1159    1158    1157    1167    1159    1158    1161    1162
    1159    1158    1161    1163    1159    1158    1161    1164
    1160    1158    1157    1167    1160    1158    1161    1162
    1160    1158    1161    1163    1160    1158    1161    1164
    1161    1158    1157    1167    1161    1164    1167    1168
    1162    1161    1164    1165    1162    1161    1164    1166
    1162    1161    1164    1167    1163    1161    1164    1165
    1163    1161    1164    1166    1163    1161    1164    1167
    1165    1164    1167    1168    1166    1164    1167    1168
    1169    1173    1174    1175    1169    1173    1174    1176
    1169    1173    1174    1177    1169    1173    1183    1180
    1169    1173    1183    1184    1170    1169    1173    1174
    1170    1169    1173    1183    1171    1169    1173    1174
    1171    1169    1173    1183    1172    1169    1173    1174
    1172    1169    1173    1183    1173    1174    1177    1178
    1173    1174    1177    1179    1173    1174    1177    1180
    1173    1183    1180    1177    1173    1183    1180    1181
    1173    1183    1180    1182    1174    1173    1183    1180
    1174    1173    1183    1184    1174    1177    1180    1181
    1174    1177    1180    1182    1174    1177    1180    1183
    1175    1174    1173    1183    1175    1174    1177    1178
    1175    1174    1177    1179    1175    1174    1177    1180
    1176    1174    1173    1183    1176    1174    1177    1178
    1176    1174    1177    1179    1176    1174    1177    1180
    1177    1174    1173    1183    1177    1180    1183    1184
    1178    1177    1180    1181    1178    1177    1180    1182
    1178    1177    1180    1183    1179    1177    1180    1181
    1179    1177    1180    1182    1179    1177    1180    1183
    1181    1180    1183    1184    1182    1180    1183    1184
    1185    1189    1190    1191    1185    1189    1190    1192
    1185    1189    1190    1193    1185    1189    1199    1196
    1185    1189    1199    1200    1186    1185    1189    1190
    1186    1185    1189    1199    1187    1185    1189    1190
    1187    1185    1189    1199    1188    1185    1189    1190
    1188    1185    1189    1199    1189    1190    1193    1194
    1189    1190    1193    1195    1189    1190    1193    1196
    1189    1199    1196    1193    1189    1199    1196    1197
    1189    1199    1196    1198    1190    1189    1199    1196
    1190    1189    1199    1200    1190    1193    1196    1197
    1190    1193    1196    1198    1190    1193    1196    1199
    1191    1190    1189    1199    1191    1190    1193    1194
    1191    1190    1193    1195    1191    1190    1193    1196
    1192    1190    1189    1199    1192    1190    1193    1194
    1192    1190    1193    1195    1192    1190    1193    1196
    1193    1190    1189    1199    1193    1196    1199    1200
    1194    1193    1196    1197    1194    1193    1196    1198
    1194    1193    1196    1199    1195    1193    1196    1197
    1195    1193    1196    1198    1195    1193    1196    1199
    1197    1196    1199    1200    1198    1196    1199    1200
    1201    1205    1206    1207    1201    1205    1206    1208
    1201    1205    1206    1209    1201    1205    1215    1212
    1201    1205    1215    1216    1202    1201    1205    1206
    1202    1201    1205    1215    1203    1201    1205    1206
    1203    1201    1205    1215    1204    1201    1205    1206
    1204    1201    1205    1215    1205    1206    1209    1210
    1205    1206    1209    1211    1205    1206    1209    1212
    1205    1215    1212    1209    1205    1215    1212    1213
    1205    1215    1212    1214    1206    1205    1215    1212
    1206    1205    1215    1216    1206    1209    1212    1213
    1206    1209    1212    1214    1206    1209    1212    1215
    1207    1206    1205    1215    1207    1206    1209    1210
    1207    1206    1209    1211    1207    1206    1209    1212
    1208    1206    1205    1215    1208    1206    1209    1210
    1208    1206    1209    1211    1208    1206    1209    1212
    1209    1206    1205    1215    1209    1212    1215    1216
    1210    1209    1212    1213    1210    1209    1212    1214
    1210    1209    1212    1215    1211    1209    1212    1213
    1211    1209    1212    1214    1211    1209    1212    1215
    1213    1212    1215    1216    1214    1212    1215    1216
    1217    1221    1222    1223    1217    1221    1222    1224
    1217    1221    1222    1225    1217    1221    1231    1228
    1217    1221    1231    1232    1218    1217    1221    1222
    1218    1217    1221    1231    1219    1217    1221    1222
    1219    1217    1221    1231    1220    1217    1221    1222
    1220    1217    1221    1231    1221    1222    1225    1226
    1221    1222    1225    1227    1221    1222    1225    1228
    1221    1231    1228    1225    1221    1231    1228    1229
    1221    1231    1228    1230    1222    1221    1231    1228
    1222    1221    1231    1232    1222    1225    1228    1229
    1222    1225    1228    1230    1222    1225    1228    1231
    1223    1222    1221    1231    1223    1222    1225    1226
    1223    1222    1225    1227    1223    1222    1225    1228
    1224    1222    1221    1231    1224    1222    1225    1226
    1224    1222    1225    1227    1224    1222    1225    1228
    1225    1222    1221    1231    1225    1228    1231    1232
    1226    1225    1228    1229    1226    1225    1228    1230
    1226    1225    1228    1231    1227    1225    1228    1229
    1227    1225    1228    1230    1227    1225    1228    1231
    1229    1228    1231    1232    1230    1228    1231    1232
    1233    1237    1238    1239    1233    1237    1238    1240
    1233    1237    1238    1241    1233    1237    1247    1244
    1233    1237    1247    1248    1234    1233    1237    1238
    1234    1233    1237    1247    1235    1233    1237    1238
    1235    1233    1237    1247    1236    1233    1237    1238
    1236    1233    1237    1247    1237    1238    1241    1242
    1237    1238    1241    1243    1237    1238    1241    1244
    1237    1247    1244    1241    1237    1247    1244    1245
    1237    1247    1244    1246    1238    1237    1247    1244
    1238    1237    1247    1248    1238    1241    1244    1245
    1238    1241    1244    1246    1238    1241    1244    1247
    1239    1238    1237    1247    1239    1238    1241    1242
    1239    1238    1241    1243    1239    1238    1241    1244
    1240    1238    1237    1247    1240    1238    1241    1242
    1240    1238    1241    1243    1240    1238    1241    1244
    1241    1238    1237    1247    1241    1244    1247    1248
    1242    1241    1244    1245    1242    1241    1244    1246
    1242    1241    1244    1247    1243    1241    1244    1245
    1243    1241    1244    1246    1243    1241    1244    1247
    1245    1244    1247    1248    1246    1244    1247    1248
    1249    1253    1254    1255    1249    1253    1254    1256
    1249    1253    1254    1257    1249    1253    1263    1260
    1249    1253    1263    1264    1250    1249    1253    1254
    1250    1249    1253    1263    1251    1249    1253    1254
    1251    1249    1253    1263    1252    1249    1253    1254
    1252    1249    1253    1263    1253    1254    1257    1258
    1253    1254    1257    1259    1253    1254    1257    1260
    1253    1263    1260    1257    1253    1263    1260    1261
    1253    1263    1260    1262    1254    1253    1263    1260
    1254    1253    1263    1264    1254    1257    1260    1261
    1254    1257    1260    1262    1254    1257    1260    1263
    1255    1254    1253    1263    1255    1254    1257    1258
    1255    1254    1257    1259    1255    1254    1257    1260
    1256    1254    1253    1263    1256    1254    1257    1258
    1256    1254    1257    1259    1256    1254    1257    1260
    1257    1254    1253    1263    1257    1260    1263    1264
    1258    1257    1260    1261    1258    1257    1260    1262
    1258    1257    1260    1263    1259    1257    1260    1261
    1259    1257    1260    1262    1259    1257    1260    1263
    1261    1260    1263    1264    1262    1260    1263    1264
    1265    1269    1270    1271    1265    1269    1270    1272
    1265    1269    1270    1273    1265    1269    1279    1276
    1265    1269    1279    1280    1266    1265    1269    1270
    1266    1265    1269    1279    1267    1265    1269    1270
    1267    1265    1269    1279    1268    1265    1269    1270
    1268    1265    1269    1279    1269    1270    1273    1274
    1269    1270    1273    1275    1269    1270    1273    1276
    1269    1279    1276    1273    1269    1279    1276    1277
    1269    1279    1276    1278    1270    1269    1279    1276
    1270    1269    1279    1280    1270    1273    1276    1277
    1270    1273    1276    1278    1270    1273    1276    1279
    1271    1270    1269    1279    1271    1270    1273    1274
    1271    1270    1273    1275    1271    1270    1273    1276
    1272    1270    1269    1279    1272    1270    1273    1274
    1272    1270    1273    1275    1272    1270    1273    1276
    1273    1270    1269    1279    1273    1276    1279    1280
    1274    1273    1276    1277    1274    1273    1276    1278
    1274    1273    1276    1279    1275    1273    1276    1277
    1275    1273    1276    1278    1275    1273    1276    1279
    1277    1276    1279    1280    1278    1276    1279    1280
    1281    1285    1286    1287    1281    1285    1286    1288
    1281    1285    1286    1289    1281    1285    1295    1292
    1281    1285    1295    1296    1282    1281    1285    1286
    1282    1281    1285    1295    1283    1281    1285    1286
    1283    1281    1285    1295    1284    1281    1285    1286
    1284    1281    1285    1295    1285    1286    1289    1290
    1285    1286    1289    1291    1285    1286    1289    1292
    1285    1295    1292    1289    1285    1295    1292    1293
    1285    1295    1292    1294    1286    1285    1295    1292
    1286    1285    1295    1296    1286    1289    1292    1293
    1286    1289    1292    1294    1286    1289    1292    1295
    1287    1286    1285    1295    1287    1286    1289    1290
    1287    1286    1289    1291    1287    1286    1289    1292
    1288    1286    1285    1295    1288    1286    1289    1290
    1288    1286    1289    1291    1288    1286    1289    1292
    1289    1286    1285    1295    1289    1292    1295    1296
    1290    1289    1292    1293    1290    1289    1292    1294
    1290    1289    1292    1295    1291    1289    1292    1293
    1291    1289    1292    1294    1291    1289    1292    1295
    1293    1292    1295    1296    1294    1292    1295    1296
    1297    1301    1302    1303    1297    1301    1302    1304
    1297    1301    1302    1305    1297    1301    1311    1308
    1297    1301    1311    1312    1298    1297    1301    1302
    1298    1297    1301    1311    1299    1297    1301    1302
    1299    1297    1301    1311    1300    1297    1301    1302
    1300    1297    1301    1311    1301    1302    1305    1306
    1301    1302    1305    1307    1301    1302    1305    1308
    1301    1311    1308    1305    1301    1311    1308    1309
    1301    1311    1308    1310    1302    1301    1311    1308
    1302    1301    1311    1312    1302    1305    1308    1309
    1302    1305    1308    1310    1302    1305    1308    1311
    1303    1302    1301    1311    1303    1302    1305    1306
    1303    1302    1305    1307    1303    1302    1305    1308
    1304    1302    1301    1311    1304    1302    1305    1306
    1304    1302    1305    1307    1304    1302    1305    1308
    1305    1302    1301    1311    1305    1308    1311    1312
    1306    1305    1308    1309    1306    1305    1308    1310
    1306    1305    1308    1311    1307    1305    1308    1309
    1307    1305    1308    1310    1307    1305    1308    1311
    1309    1308    1311    1312    1310    1308    1311    1312
    1313    1317    1318    1319    1313    1317    1318    1320
    1313    1317    1318    1321    1313    1317    1327    1324
    1313    1317    1327    1328    1314    1313    1317    1318
    1314    1313    1317    1327    1315    1313    1317    1318
    1315    1313    1317    1327    1316    1313    1317    1318
    1316    1313    1317    1327    1317    1318    1321    1322
    1317    1318    1321    1323    1317    1318    1321    1324
    1317    1327    1324    1321    1317    1327    1324    1325
    1317    1327    1324    1326    1318    1317    1327    1324
    1318    1317    1327    1328    1318    1321    1324    1325
    1318    1321    1324    1326    1318    1321    1324    1327
    1319    1318    1317    1327    1319    1318    1321    1322
    1319    1318    1321    1323    1319    1318    1321    1324
    1320    1318    1317    1327    1320    1318    1321    1322
    1320    1318    1321    1323    1320    1318    1321    1324
    1321    1318    1317    1327    1321    1324    1327    1328
    1322    1321    1324    1325    1322    1321    1324    1326
    1322    1321    1324    1327    1323    1321    1324    1325
    1323    1321    1324    1326    1323    1321    1324    1327
    1325    1324    1327    1328    1326    1324    1327    1328
    1329    1333    1334    1335    1329    1333    1334    1336
    1329    1333    1334    1337    1329    1333    1343    1340
    1329    1333    1343    1344    1330    1329    1333    1334
    1330    1329    1333    1343    1331    1329    1333    1334
    1331    1329    1333    1343    1332    1329    1333    1334
    1332    1329    1333    1343    1333    1334    1337    1338
    1333    1334    1337    1339    1333    1334    1337    1340
    1333    1343    1340    1337    1333    1343    1340    1341
    1333    1343    1340    1342    1334    1333    1343    1340
    1334    1333    1343    1344    1334    1337    1340    1341
    1334    1337    1340    1342    1334    1337    1340    1343
    1335    1334    1333    1343    1335    1334    1337    1338
    1335    1334    1337    1339    1335    1334    1337    1340
    1336    1334    1333    1343    1336    1334    1337    1338
    1336    1334    1337    1339    1336    1334    1337    1340
    1337    1334    1333    1343    1337    1340    1343    1344
    1338    1337    1340    1341    1338    1337    1340    1342
    1338    1337    1340    1343    1339    1337    1340    1341
    1339    1337    1340    1342    1339    1337    1340    1343
    1341    1340    1343    1344    1342    1340    1343    1344
    1345    1349    1350    1351    1345    1349    1350    1352
    1345    1349    1350    1353    1345    1349    1359    1356
    1345    1349    1359    1360    1346    1345    1349    1350
    1346    1345    1349    1359    1347    1345    1349    1350
    1347    1345    1349    1359    1348    1345    1349    1350
    1348    1345    1349    1359    1349    1350    1353    1354
    1349    1350    1353    1355    1349    1350    1353    1356
    1349    1359    1356    1353    1349    1359    1356    1357
    1349    1359    1356    1358    1350    1349    1359    1356
    1350    1349    1359    1360    1350    1353    1356    1357
    1350    1353    1356    1358    1350    1353    1356    1359
    1351    1350    1349    1359    1351    1350    1353    1354
    1351    1350    1353    1355    1351    1350    1353    1356
    1352    1350    1349    1359    1352    1350    1353    1354
    1352    1350    1353    1355    1352    1350    1353    1356
    1353    1350    1349    1359    1353    1356    1359    1360
    1354    1353    1356    1357    1354    1353    1356    1358
    1354    1353    1356    1359    1355    1353    1356    1357
    1355    1353    1356    1358    1355    1353    1356    1359
    1357    1356    1359    1360    1358    1356    1359    1360
    1361    1365    1366    1367    1361    1365    1366    1368
    1361    1365    1366    1369    1361    1365    1375    1372
    1361    1365    1375    1376    1362    1361    1365    1366
    1362    1361    1365    1375    1363    1361    1365    1366
    1363    1361    1365    1375    1364    1361    1365    1366
    1364    1361    1365    1375    1365    1366    1369    1370
    1365    1366    1369    1371    1365    1366    1369    1372
    1365    1375    1372    1369    1365    1375    1372    1373
    1365    1375    1372    1374    1366    1365    1375    1372
    1366    1365    1375    1376    1366    1369    1372    1373
    1366    1369    1372    1374    1366    1369    1372    1375
    1367    1366    1365    1375    1367    1366    1369    1370
    1367    1366    1369    1371    1367    1366    1369    1372
    1368    1366    1365    1375    1368    1366    1369    1370
    1368    1366    1369    1371    1368    1366    1369    1372
    1369    1366    1365    1375    1369    1372    1375    1376
    1370    1369    1372    1373    1370    1369    1372    1374
    1370    1369    1372    1375    1371    1369    1372    1373
    1371    1369    1372    1374    1371    1369    1372    1375
    1373    1372    1375    1376    1374    1372    1375    1376
    1377    1381    1382    1383    1377    1381    1382    1384
    1377    1381    1382    1385    1377    1381    1391    1388
    1377    1381    1391    1392    1378    1377    1381    1382
    1378    1377    1381    1391    1379    1377    1381    1382
    1379    1377    1381    1391    1380    1377    1381    1382
    1380    1377    1381    1391    1381    1382    1385    1386
    1381    1382    1385    1387    1381    1382    1385    1388
    1381    1391    1388    1385    1381    1391    1388    1389
    1381    1391    1388    1390    1382    1381    1391    1388
    1382    1381    1391    1392    1382    1385    1388    1389
    1382    1385    1388    1390    1382    1385    1388    1391
    1383    1382    1381    1391    1383    1382    1385    1386
    1383    1382    1385    1387    1383    1382    1385    1388
    1384    1382    1381    1391    1384    1382    1385    1386
    1384    1382    1385    1387    1384    1382    1385    1388
    1385    1382    1381    1391    1385    1388    1391    1392
    1386    1385    1388    1389    1386    1385    1388    1390
    1386    1385    1388    1391    1387    1385    1388    1389
    1387    1385    1388    1390    1387    1385    1388    1391
    1389    1388    1391    1392    1390    1388    1391    1392
    1393    1397    1398    1399    1393    1397    1398    1400
    1393    1397    1398    1401    1393    1397    1407    1404
    1393    1397    1407    1408    1394    1393    1397    1398
    1394    1393    1397    1407    1395    1393    1397    1398
    1395    1393    1397    1407    1396    1393    1397    1398
    1396    1393    1397    1407    1397    1398    1401    1402
    1397    1398    1401    1403    1397    1398    1401    1404
    1397    1407    1404    1401    1397    1407    1404    1405
    1397    1407    1404    1406    1398    1397    1407    1404
    1398    1397    1407    1408    1398    1401    1404    1405
    1398    1401    1404    1406    1398    1401    1404    1407
    1399    1398    1397    1407    1399    1398    1401    1402
    1399    1398    1401    1403    1399    1398    1401    1404
    1400    1398    1397    1407    1400    1398    1401    1402
    1400    1398    1401    1403    1400    1398    1401    1404
    1401    1398    1397    1407    1401    1404    1407    1408
    1402    1401    1404    1405    1402    1401    1404    1406
    1402    1401    1404    1407    1403    1401    1404    1405
    1403    1401    1404    1406    1403    1401    1404    1407
    1405    1404    1407    1408    1406    1404    1407    1408
    1409    1413    1414    1415    1409    1413    1414    1416
    1409    1413    1414    1417    1409    1413    1423    1420
    1409    1413    1423    1424    1410    1409    1413    1414
    1410    1409    1413    1423    1411    1409    1413    1414
    1411    1409    1413    1423    1412    1409    1413    1414
    1412    1409    1413    1423    1413    1414    1417    1418
    1413    1414    1417    1419    1413    1414    1417    1420
    1413    1423    1420    1417    1413    1423    1420    1421
    1413    1423    1420    1422    1414    1413    1423    1420
    1414    1413    1423    1424    1414    1417    1420    1421
    1414    1417    1420    1422    1414    1417    1420    1423
    1415    1414    1413    1423    1415    1414    1417    1418
    1415    1414    1417    1419    1415    1414    1417    1420
    1416    1414    1413    1423    1416    1414    1417    1418
    1416    1414    1417    1419    1416    1414    1417    1420
    1417    1414    1413    1423    1417    1420    1423    1424
    1418    1417    1420    1421    1418    1417    1420    1422
    1418    1417    1420    1423    1419    1417    1420    1421
    1419    1417    1420    1422    1419    1417    1420    1423
    1421    1420    1423    1424    1422    1420    1423    1424
    1425    1429    1430    1431    1425    1429    1430    1432
    1425    1429    1430    1433    1425    1429    1439    1436
    1425    1429    1439    1440    1426    1425    1429    1430
    1426    1425    1429    1439    1427    1425    1429    1430
    1427    1425    1429    1439    1428    1425    1429    1430
    1428    1425    1429    1439    1429    1430    1433    1434
    1429    1430    1433    1435    1429    1430    1433    1436
    1429    1439    1436    1433    1429    1439    1436    1437
    1429    1439    1436    1438    1430    1429    1439    1436
    1430    1429    1439    1440    1430    1433    1436    1437
    1430    1433    1436    1438    1430    1433    1436    1439
    1431    1430    1429    1439    1431    1430    1433    1434
    1431    1430    1433    1435    1431    1430    1433    1436
    1432    1430    1429    1439    1432    1430    1433    1434
    1432    1430    1433    1435    1432    1430    1433    1436
    1433    1430    1429    1439    1433    1436    1439    1440
    1434    1433    1436    1437    1434    1433    1436    1438
    1434    1433    1436    1439    1435    1433    1436    1437
    1435    1433    1436    1438    1435    1433    1436    1439
    1437    1436    1439    1440    1438    1436    1439    1440
    1441    1445    1446    1447    1441    1445    1446    1448
    1441    1445    1446    1449    1441    1445    1455    1452
    1441    1445    1455    1456    1442    1441    1445    1446
    1442    1441    1445    1455    1443    1441    1445    1446
    1443    1441    1445    1455    1444    1441    1445    1446
    1444    1441    1445    1455    1445    1446    1449    1450
    1445    1446    1449    1451    1445    1446    1449    1452
    1445    1455    1452    1449    1445    1455    1452    1453
    1445    1455    1452    1454    1446    1445    1455    1452
    1446    1445    1455    1456    1446    1449    1452    1453
    1446    1449    1452    1454    1446    1449    1452    1455
    1447    1446    1445    1455    1447    1446    1449    1450
    1447    1446    1449    1451    1447    1446    1449    1452
    1448    1446    1445    1455    1448    1446    1449    1450
    1448    1446    1449    1451    1448    1446    1449    1452
    1449    1446    1445    1455    1449    1452    1455    1456
    1450    1449    1452    1453    1450    1449    1452    1454
    1450    1449    1452    1455    1451    1449    1452    1453
    1451    1449    1452    1454    1451    1449    1452    1455
    1453    1452    1455    1456    1454    1452    1455    1456
    1457    1461    1462    1463    1457    1461    1462    1464
    1457    1461    1462    1465    1457    1461    1471    1468
    1457    1461    1471    1472    1458    1457    1461    1462
    1458    1457    1461    1471    1459    1457    1461    1462
    1459    1457    1461    1471    1460    1457    1461    1462
    1460    1457    1461    1471    1461    1462    1465    1466
    1461    1462    1465    1467    1461    1462    1465    1468
    1461    1471    1468    1465    1461    1471    1468    1469
    1461    1471    1468    1470    1462    1461    1471    1468
    1462    1461    1471    1472    1462    1465    1468    1469
    1462    1465    1468    1470    1462    1465    1468    1471
    1463    1462    1461    1471    1463    1462    1465    1466
    1463    1462    1465    1467    1463    1462    1465    1468
    1464    1462    1461    1471    1464    1462    1465    1466
    1464    1462    1465    1467    1464    1462    1465    1468
    1465    1462    1461    1471    1465    1468    1471    1472
    1466    1465    1468    1469    1466    1465    1468    1470
    1466    1465    1468    1471    1467    1465    1468    1469
    1467    1465    1468    1470    1467    1465    1468    1471
    1469    1468    1471    1472    1470    1468    1471    1472
    1473    1477    1478    1479    1473    1477    1478    1480
    1473    1477    1478    1481    1473    1477    1487    1484
    1473    1477    1487    1488    1474    1473    1477    1478
    1474    1473    1477    1487    1475    1473    1477    1478
    1475    1473    1477    1487    1476    1473    1477    1478
    1476    1473    1477    1487    1477    1478    1481    1482
    1477    1478    1481    1483    1477    1478    1481    1484
    1477    1487    1484    1481    1477    1487    1484    1485
    1477    1487    1484    1486    1478    1477    1487    1484
    1478    1477    1487    1488    1478    1481    1484    1485
    1478    1481    1484    1486    1478    1481    1484    1487
    1479    1478    1477    1487    1479    1478    1481    1482
    1479    1478    1481    1483    1479    1478    1481    1484
    1480    1478    1477    1487    1480    1478    1481    1482
    1480    1478    1481    1483    1480    1478    1481    1484
    1481    1478    1477    1487    1481    1484    1487    1488
    1482    1481    1484    1485    1482    1481    1484    1486
    1482    1481    1484    1487    1483    1481    1484    1485
    1483    1481    1484    1486    1483    1481    1484    1487
    1485    1484    1487    1488    1486    1484    1487    1488
    1489    1493    1494    1495    1489    1493    1494    1496
    1489    1493    1494    1497    1489    1493    1503    1500
    1489    1493    1503    1504    1490    1489    1493    1494
    1490    1489    1493    1503    1491    1489    1493    1494
    1491    1489    1493    1503    1492    1489    1493    1494
    1492    1489    1493    1503    1493    1494    1497    1498
    1493    1494    1497    1499    1493    1494    1497    1500
    1493    1503    1500    1497    1493    1503    1500    1501
    1493    1503    1500    1502    1494    1493    1503    1500
    1494    1493    1503    1504    1494    1497    1500    1501
    1494    1497    1500    1502    1494    1497    1500    1503
    1495    1494    1493    1503    1495    1494    1497    1498
    1495    1494    1497    1499    1495    1494    1497    1500
    1496    1494    1493    1503    1496    1494    1497    1498
    1496    1494    1497    1499    1496    1494    1497    1500
    1497    1494    1493    1503    1497    1500    1503    1504
    1498    1497    1500    1501    1498    1497    1500    1502
    1498    1497    1500    1503    1499    1497    1500    1501
    1499    1497    1500    1502    1499    1497    1500    1503
    1501    1500    1503    1504    1502    1500    1503    1504
    1505    1509    1510    1511    1505    1509    1510    1512
    1505    1509    1510    1513    1505    1509    1519    1516
    1505    1509    1519    1520    1506    1505    1509    1510
    1506    1505    1509    1519    1507    1505    1509    1510
    1507    1505    1509    1519    1508    1505    1509    1510
    1508    1505    1509    1519    1509    1510    1513    1514
    1509    1510    1513    1515    1509    1510    1513    1516
    1509    1519    1516    1513    1509    1519    1516    1517
    1509    1519    1516    1518    1510    1509    1519    1516
    1510    1509    1519    1520    1510    1513    1516    1517
    1510    1513    1516    1518    1510    1513    1516    1519
    1511    1510    1509    1519    1511    1510    1513    1514
    1511    1510    1513    1515    1511    1510    1513    1516
    1512    1510    1509    1519    1512    1510    1513    1514
    1512    1510    1513    1515    1512    1510    1513    1516
    1513    1510    1509    1519    1513    1516    1519    1520
    1514    1513    1516    1517    1514    1513    1516    1518
    1514    1513    1516    1519    1515    1513    1516    1517
    1515    1513    1516    1518    1515    1513    1516    1519
    1517    1516    1519    1520    1518    1516    1519    1520
    1521    1525    1526    1527    1521    1525    1526    1528
    1521    1525    1526    1529    1521    1525    1535    1532
    1521    1525    1535    1536    1522    1521    1525    1526
    1522    1521    1525    1535    1523    1521    1525    1526
    1523    1521    1525    1535    1524    1521    1525    1526
    1524    1521    1525    1535    1525    1526    1529    1530
    1525    1526    1529    1531    1525    1526    1529    1532
    1525    1535    1532    1529    1525    1535    1532    1533
    1525    1535    1532    1534    1526    1525    1535    1532
    1526    1525    1535    1536    1526    1529    1532    1533
    1526    1529    1532    1534    1526    1529    1532    1535
    1527    1526    1525    1535    1527    1526    1529    1530
    1527    1526    1529    1531    1527    1526    1529    1532
    1528    1526    1525    1535    1528    1526    1529    1530
    1528    1526    1529    1531    1528    1526    1529    1532
    1529    1526    1525    1535    1529    1532    1535    1536
    1530    1529    1532    1533    1530    1529    1532    1534
    1530    1529    1532    1535    1531    1529    1532    1533
    1531    1529    1532    1534    1531    1529    1532    1535
    1533    1532    1535    1536    1534    1532    1535    1536
    1537    1541    1542    1543    1537    1541    1542    1544
    1537    1541    1542    1545    1537    1541    1551    1548
    1537    1541    1551    1552    1538    1537    1541    1542
    1538    1537    1541    1551    1539    1537    1541    1542
    1539    1537    1541    1551    1540    1537    1541    1542
    1540    1537    1541    1551    1541    1542    1545    1546
    1541    1542    1545    1547    1541    1542    1545    1548
    1541    1551    1548    1545    1541    1551    1548    1549
    1541    1551    1548    1550    1542    1541    1551    1548
    1542    1541    1551    1552    1542    1545    1548    1549
    1542    1545    1548    1550    1542    1545    1548    1551
    1543    1542    1541    1551    1543    1542    1545    1546
    1543    1542    1545    1547    1543    1542    1545    1548
    1544    1542    1541    1551    1544    1542    1545    1546
    1544    1542    1545    1547    1544    1542    1545    1548
    1545    1542    1541    1551    1545    1548    1551    1552
    1546    1545    1548    1549    1546    1545    1548    1550
    1546    1545    1548    1551    1547    1545    1548    1549
    1547    1545    1548    1550    1547    1545    1548    1551
    1549    1548    1551    1552    1550    1548    1551    1552
    1553    1557    1558    1559    1553    1557    1558    1560
    1553    1557    1558    1561    1553    1557    1567    1564
    1553    1557    1567    1568    1554    1553    1557    1558
    1554    1553    1557    1567    1555    1553    1557    1558
    1555    1553    1557    1567    1556    1553    1557    1558
    1556    1553    1557    1567    1557    1558    1561    1562
    1557    1558    1561    1563    1557    1558    1561    1564
    1557    1567    1564    1561    1557    1567    1564    1565
    1557    1567    1564    1566    1558    1557    1567    1564
    1558    1557    1567    1568    1558    1561    1564    1565
    1558    1561    1564    1566    1558    1561    1564    1567
    1559    1558    1557    1567    1559    1558    1561    1562
    1559    1558    1561    1563    1559    1558    1561    1564
    1560    1558    1557    1567    1560    1558    1561    1562
    1560    1558    1561    1563    1560    1558    1561    1564
    1561    1558    1557    1567    1561    1564    1567    1568
    1562    1561    1564    1565    1562    1561    1564    1566
    1562    1561    1564    1567    1563    1561    1564    1565
    1563    1561    1564    1566    1563    1561    1564    1567
    1565    1564    1567    1568    1566    1564    1567    1568
    1569    1573    1574    1575    1569    1573    1574    1576
    1569    1573    1574    1577    1569    1573    1583    1580
    1569    1573    1583    1584    1570    1569    1573    1574
    1570    1569    1573    1583    1571    1569    1573    1574
    1571    1569    1573    1583    1572    1569    1573    1574
    1572    1569    1573    1583    1573    1574    1577    1578
    1573    1574    1577    1579    1573    1574    1577    1580
    1573    1583    1580    1577    1573    1583    1580    1581
    1573    1583    1580    1582    1574    1573    1583    1580
    1574    1573    1583    1584    1574    1577    1580    1581
    1574    1577    1580    1582    1574    1577    1580    1583
    1575    1574    1573    1583    1575    1574    1577    1578
    1575    1574    1577    1579    1575    1574    1577    1580
    1576    1574    1573    1583    1576    1574    1577    1578
    1576    1574    1577    1579    1576    1574    1577    1580
    1577    1574    1573    1583    1577    1580    1583    1584
    1578    1577    1580    1581    1578    1577    1580    1582
    1578    1577    1580    1583    1579    1577    1580    1581
    1579    1577    1580    1582    1579    1577    1580    1583
    1581    1580    1583    1584    1582    1580    1583    1584
    1585    1589    1590    1591    1585    1589    1590    1592
    1585    1589    1590    1593    1585    1589    1599    1596
    1585    1589    1599    1600    1586    1585    1589    1590
    1586    1585    1589    1599    1587    1585    1589    1590
    1587    1585    1589    1599    1588    1585    1589    1590
    1588    1585    1589    1599    1589    1590    1593    1594
    1589    1590    1593    1595    1589    1590    1593    1596
    1589    1599    1596    1593    1589    1599    1596    1597
    1589    1599    1596    1598    1590    1589    1599    1596
    1590    1589    1599    1600    1590    1593    1596    1597
    1590    1593    1596    1598    1590    1593    1596    1599
    1591    1590    1589    1599    1591    1590    1593    1594
    1591    1590    1593    1595    1591    1590    1593    1596
    1592    1590    1589    1599    1592    1590    1593    1594
    1592    1590    1593    1595    1592    1590    1593    1596
    1593    1590    1589    1599    1593    1596    1599    1600
    1594    1593    1596    1597    1594    1593    1596    1598
    1594    1593    1596    1599    1595    1593    1596    1597
    1595    1593    1596    1598    1595    1593    1596    1599
    1597    1596    1599    1600    1598    1596    1599    1600
    1601    1605    1606    1607    1601    1605    1606    1608
    1601    1605    1606    1609    1601    1605    1615    1612
    1601    1605    1615    1616    1602    1601    1605    1606
    1602    1601    1605    1615    1603    1601    1605    1606
    1603    1601    1605    1615    1604    1601    1605    1606
    1604    1601    1605    1615    1605    1606    1609    1610
    1605    1606    1609    1611    1605    1606    1609    1612
    1605    1615    1612    1609    1605    1615    1612    1613
    1605    1615    1612    1614    1606    1605    1615    1612
    1606    1605    1615    1616    1606    1609    1612    1613
    1606    1609    1612    1614    1606    1609    1612    1615
    1607    1606    1605    1615    1607    1606    1609    1610
    1607    1606    1609    1611    1607    1606    1609    1612
    1608    1606    1605    1615    1608    1606    1609    1610
    1608    1606    1609    1611    1608    1606    1609    1612
    1609    1606    1605    1615    1609    1612    1615    1616
    1610    1609    1612    1613    1610    1609    1612    1614
    1610    1609    1612    1615    1611    1609    1612    1613
    1611    1609    1612    1614    1611    1609    1612    1615
    1613    1612    1615    1616    1614    1612    1615    1616
    1617    1621    1622    1623    1617    1621    1622    1624
    1617    1621    1622    1625    1617    1621    1631    1628
    1617    1621    1631    1632    1618    1617    1621    1622
    1618    1617    1621    1631    1619    1617    1621    1622
    1619    1617    1621    1631    1620    1617    1621    1622
    1620    1617    1621    1631    1621    1622    1625    1626
    1621    1622    1625    1627    1621    1622    1625    1628
    1621    1631    1628    1625    1621    1631    1628    1629
    1621    1631    1628    1630    1622    1621    1631    1628
    1622    1621    1631    1632    1622    1625    1628    1629
    1622    1625    1628    1630    1622    1625    1628    1631
    1623    1622    1621    1631    1623    1622    1625    1626
    1623    1622    1625    1627    1623    1622    1625    1628
    1624    1622    1621    1631    1624    1622    1625    1626
    1624    1622    1625    1627    1624    1622    1625    1628
    1625    1622    1621    1631    1625    1628    1631    1632
    1626    1625    1628    1629    1626    1625    1628    1630
    1626    1625    1628    1631    1627    1625    1628    1629
    1627    1625    1628    1630    1627    1625    1628    1631
    1629    1628    1631    1632    1630    1628    1631    1632
    1633    1637    1638    1639    1633    1637    1638    1640
    1633    1637    1638    1641    1633    1637    1647    1644
    1633    1637    1647    1648    1634    1633    1637    1638
    1634    1633    1637    1647    1635    1633    1637    1638
    1635    1633    1637    1647    1636    1633    1637    1638
    1636    1633    1637    1647    1637    1638    1641    1642
    1637    1638    1641    1643    1637    1638    1641    1644
    1637    1647    1644    1641    1637    1647    1644    1645
    1637    1647    1644    1646    1638    1637    1647    1644
    1638    1637    1647    1648    1638    1641    1644    1645
    1638    1641    1644    1646    1638    1641    1644    1647
    1639    1638    1637    1647    1639    1638    1641    1642
    1639    1638    1641    1643    1639    1638    1641    1644
    1640    1638    1637    1647    1640    1638    1641    1642
    1640    1638    1641    1643    1640    1638    1641    1644
    1641    1638    1637    1647    1641    1644    1647    1648
    1642    1641    1644    1645    1642    1641    1644    1646
    1642    1641    1644    1647    1643    1641    1644    1645
    1643    1641    1644    1646    1643    1641    1644    1647
    1645    1644    1647    1648    1646    1644    1647    1648
    1649    1653    1654    1655    1649    1653    1654    1656
    1649    1653    1654    1657    1649    1653    1663    1660
    1649    1653    1663    1664    1650    1649    1653    1654
    1650    1649    1653    1663    1651    1649    1653    1654
    1651    1649    1653    1663    1652    1649    1653    1654
    1652    1649    1653    1663    1653    1654    1657    1658
    1653    1654    1657    1659    1653    1654    1657    1660
    1653    1663    1660    1657    1653    1663    1660    1661
    1653    1663    1660    1662    1654    1653    1663    1660
    1654    1653    1663    1664    1654    1657    1660    1661
    1654    1657    1660    1662    1654    1657    1660    1663
    1655    1654    1653    1663    1655    1654    1657    1658
    1655    1654    1657    1659    1655    1654    1657    1660
    1656    1654    1653    1663    1656    1654    1657    1658
    1656    1654    1657    1659    1656    1654    1657    1660
    1657    1654    1653    1663    1657    1660    1663    1664
    1658    1657    1660    1661    1658    1657    1660    1662
    1658    1657    1660    1663    1659    1657    1660    1661
    1659    1657    1660    1662    1659    1657    1660    1663
    1661    1660    1663    1664    1662    1660    1663    1664
    1665    1669    1670    1671    1665    1669    1670    1672
    1665    1669    1670    1673    1665    1669    1679    1676
    1665    1669    1679    1680    1666    1665    1669    1670
    1666    1665    1669    1679    1667    1665    1669    1670
    1667    1665    1669    1679    1668    1665    1669    1670
    1668    1665    1669    1679    1669    1670    1673    1674
    1669    1670    1673    1675    1669    1670    1673    1676
    1669    1679    1676    1673    1669    1679    1676    1677
    1669    1679    1676    1678    1670    1669    1679    1676
    1670    1669    1679    1680    1670    1673    1676    1677
    1670    1673    1676    1678    1670    1673    1676    1679
    1671    1670    1669    1679    1671    1670    1673    1674
    1671    1670    1673    1675    1671    1670    1673    1676
    1672    1670    1669    1679    1672    1670    1673    1674
    1672    1670    1673    1675    1672    1670    1673    1676
    1673    1670    1669    1679    1673    1676    1679    1680
    1674    1673    1676    1677    1674    1673    1676    1678
    1674    1673    1676    1679    1675    1673    1676    1677
    1675    1673    1676    1678    1675    1673    1676    1679
    1677    1676    1679    1680    1678    1676    1679    1680
    1681    1685    1686    1687    1681    1685    1686    1688
    1681    1685    1686    1689    1681    1685    1695    1692
    1681    1685    1695    1696    1682    1681    1685    1686
    1682    1681    1685    1695    1683    1681    1685    1686
    1683    1681    1685    1695    1684    1681    1685    1686
    1684    1681    1685    1695    1685    1686    1689    1690
    1685    1686    1689    1691    1685    1686    1689    1692
    1685    1695    1692    1689    1685    1695    1692    1693
    1685    1695    1692    1694    1686    1685    1695    1692
    1686    1685    1695    1696    1686    1689    1692    1693
    1686    1689    1692    1694    1686    1689    1692    1695
    1687    1686    1685    1695    1687    1686    1689    1690
    1687    1686    1689    1691    1687    1686    1689    1692
    1688    1686    1685    1695    1688    1686    1689    1690
    1688    1686    1689    1691    1688    1686    1689    1692
    1689    1686    1685    1695    1689    1692    1695    1696
    1690    1689    1692    1693    1690    1689    1692    1694
    1690    1689    1692    1695    1691    1689    1692    1693
    1691    1689    1692    1694    1691    1689    1692    1695
    1693    1692    1695    1696    1694    1692    1695    1696
    1697    1701    1702    1703    1697    1701    1702    1704
    1697    1701    1702    1705    1697    1701    1711    1708
    1697    1701    1711    1712    1698    1697    1701    1702
    1698    1697    1701    1711    1699    1697    1701    1702
    1699    1697    1701    1711    1700    1697    1701    1702
    1700    1697    1701    1711    1701    1702    1705    1706
    1701    1702    1705    1707    1701    1702    1705    1708
    1701    1711    1708    1705    1701    1711    1708    1709
    1701    1711    1708    1710    1702    1701    1711    1708
    1702    1701    1711    1712    1702    1705    1708    1709
    1702    1705    1708    1710    1702    1705    1708    1711
    1703    1702    1701    1711    1703    1702    1705    1706
    1703    1702    1705    1707    1703    1702    1705    1708
    1704    1702    1701    1711    1704    1702    1705    1706
    1704    1702    1705    1707    1704    1702    1705    1708
    1705    1702    1701    1711    1705    1708    1711    1712
    1706    1705    1708    1709    1706    1705    1708    1710
    1706    1705    1708    1711    1707    1705    1708    1709
    1707    1705    1708    1710    1707    1705    1708    1711
    1709    1708    1711    1712    1710    1708    1711    1712
    1713    1717    1718    1719    1713    1717    1718    1720
    1713    1717    1718    1721    1713    1717    1727    1724
    1713    1717    1727    1728    1714    1713    1717    1718
    1714    1713    1717    1727    1715    1713    1717    1718
    1715    1713    1717    1727    1716    1713    1717    1718
    1716    1713    1717    1727    1717    1718    1721    1722
    1717    1718    1721    1723    1717    1718    1721    1724
    1717    1727    1724    1721    1717    1727    1724    1725
    1717    1727    1724    1726    1718    1717    1727    1724
    1718    1717    1727    1728    1718    1721    1724    1725
    1718    1721    1724    1726    1718    1721    1724    1727
    1719    1718    1717    1727    1719    1718    1721    1722
    1719    1718    1721    1723    1719    1718    1721    1724
    1720    1718    1717    1727    1720    1718    1721    1722
    1720    1718    1721    1723    1720    1718    1721    1724
    1721    1718    1717    1727    1721    1724    1727    1728
    1722    1721    1724    1725    1722    1721    1724    1726
    1722    1721    1724    1727    1723    1721    1724    1725
    1723    1721    1724    1726    1723    1721    1724    1727
    1725    1724    1727    1728    1726    1724    1727    1728
    1729    1733    1734    1735    1729    1733    1734    1736
    1729    1733    1734    1737    1729    1733    1743    1740
    1729    1733    1743    1744    1730    1729    1733    1734
    1730    1729    1733    1743    1731    1729    1733    1734
    1731    1729    1733    1743    1732    1729    1733    1734
    1732    1729    1733    1743    1733    1734    1737    1738
    1733    1734    1737    1739    1733    1734    1737    1740
    1733    1743    1740    1737    1733    1743    1740    1741
    1733    1743    1740    1742    1734    1733    1743    1740
    1734    1733    1743    1744    1734    1737    1740    1741
    1734    1737    1740    1742    1734    1737    1740    1743
    1735    1734    1733    1743    1735    1734    1737    1738
    1735    1734    1737    1739    1735    1734    1737    1740
    1736    1734    1733    1743    1736    1734    1737    1738
    1736    1734    1737    1739    1736    1734    1737    1740
    1737    1734    1733    1743    1737    1740    1743    1744
    1738    1737    1740    1741    1738    1737    1740    1742
    1738    1737    1740    1743    1739    1737    1740    1741
    1739    1737    1740    1742    1739    1737    1740    1743
    1741    1740    1743    1744    1742    1740    1743    1744
    1745    1749    1750    1751    1745    1749    1750    1752
    1745    1749    1750    1753    1745    1749    1759    1756
    1745    1749    1759    1760    1746    1745    1749    1750
    1746    1745    1749    1759    1747    1745    1749    1750
    1747    1745    1749    1759    1748    1745    1749    1750
    1748    1745    1749    1759    1749    1750    1753    1754
    1749    1750    1753    1755    1749    1750    1753    1756
    1749    1759    1756    1753    1749    1759    1756    1757
    1749    1759    1756    1758    1750    1749    1759    1756
    1750    1749    1759    1760    1750    1753    1756    1757
    1750    1753    1756    1758    1750    1753    1756    1759
    1751    1750    1749    1759    1751    1750    1753    1754
    1751    1750    1753    1755    1751    1750    1753    1756
    1752    1750    1749    1759    1752    1750    1753    1754
    1752    1750    1753    1755    1752    1750    1753    1756
    1753    1750    1749    1759    1753    1756    1759    1760
    1754    1753    1756    1757    1754    1753    1756    1758
    1754    1753    1756    1759    1755    1753    1756    1757
    1755    1753    1756    1758    1755    1753    1756    1759
    1757    1756    1759    1760    1758    1756    1759    1760
    1761    1765    1766    1767    1761    1765    1766    1768
    1761    1765    1766    1769    1761    1765    1775    1772
    1761    1765    1775    1776    1762    1761    1765    1766
    1762    1761    1765    1775    1763    1761    1765    1766
    1763    1761    1765    1775    1764    1761    1765    1766
    1764    1761    1765    1775    1765    1766    1769    1770
    1765    1766    1769    1771    1765    1766    1769    1772
    1765    1775    1772    1769    1765    1775    1772    1773
    1765    1775    1772    1774    1766    1765    1775    1772
    1766    1765    1775    1776    1766    1769    1772    1773
    1766    1769    1772    1774    1766    1769    1772    1775
    1767    1766    1765    1775    1767    1766    1769    1770
    1767    1766    1769    1771    1767    1766    1769    1772
    1768    1766    1765    1775    1768    1766    1769    1770
    1768    1766    1769    1771    1768    1766    1769    1772
    1769    1766    1765    1775    1769    1772    1775    1776
    1770    1769    1772    1773    1770    1769    1772    1774
    1770    1769    1772    1775    1771    1769    1772    1773
    1771    1769    1772    1774    1771    1769    1772    1775
    1773    1772    1775    1776    1774    1772    1775    1776
    1777    1781    1782    1783    1777    1781    1782    1784
    1777    1781    1782    1785    1777    1781    1791    1788
    1777    1781    1791    1792    1778    1777    1781    1782
    1778    1777    1781    1791    1779    1777    1781    1782
    1779    1777    1781    1791    1780    1777    1781    1782
    1780    1777    1781    1791    1781    1782    1785    1786
    1781    1782    1785    1787    1781    1782    1785    1788
    1781    1791    1788    1785    1781    1791    1788    1789
    1781    1791    1788    1790    1782    1781    1791    1788
    1782    1781    1791    1792    1782    1785    1788    1789
    1782    1785    1788    1790    1782    1785    1788    1791
    1783    1782    1781    1791    1783    1782    1785    1786
    1783    1782    1785    1787    1783    1782    1785    1788
    1784    1782    1781    1791    1784    1782    1785    1786
    1784    1782    1785    1787    1784    1782    1785    1788
    1785    1782    1781    1791    1785    1788    1791    1792
    1786    1785    1788    1789    1786    1785    1788    1790
    1786    1785    1788    1791    1787    1785    1788    1789
    1787    1785    1788    1790    1787    1785    1788    1791
    1789    1788    1791    1792    1790    1788    1791    1792
    1793    1797    1798    1799    1793    1797    1798    1800
    1793    1797    1798    1801    1793    1797    1807    1804
    1793    1797    1807    1808    1794    1793    1797    1798
    1794    1793    1797    1807    1795    1793    1797    1798
    1795    1793    1797    1807    1796    1793    1797    1798
    1796    1793    1797    1807    1797    1798    1801    1802
    1797    1798    1801    1803    1797    1798    1801    1804
    1797    1807    1804    1801    1797    1807    1804    1805
    1797    1807    1804    1806    1798    1797    1807    1804
    1798    1797    1807    1808    1798    1801    1804    1805
    1798    1801    1804    1806    1798    1801    1804    1807
    1799    1798    1797    1807    1799    1798    1801    1802
    1799    1798    1801    1803    1799    1798    1801    1804
    1800    1798    1797    1807    1800    1798    1801    1802
    1800    1798    1801    1803    1800    1798    1801    1804
    1801    1798    1797    1807    1801    1804    1807    1808
    1802    1801    1804    1805    1802    1801    1804    1806
    1802    1801    1804    1807    1803    1801    1804    1805
    1803    1801    1804    1806    1803    1801    1804    1807
    1805    1804    1807    1808    1806    1804    1807    1808
    1809    1813    1814    1815    1809    1813    1814    1816
    1809    1813    1814    1817    1809    1813    1823    1820
    1809    1813    1823    1824    1810    1809    1813    1814
    1810    1809    1813    1823    1811    1809    1813    1814
    1811    1809    1813    1823    1812    1809    1813    1814
    1812    1809    1813    1823    1813    1814    1817    1818
    1813    1814    1817    1819    1813    1814    1817    1820
    1813    1823    1820    1817    1813    1823    1820    1821
    1813    1823    1820    1822    1814    1813    1823    1820
    1814    1813    1823    1824    1814    1817    1820    1821
    1814    1817    1820    1822    1814    1817    1820    1823
    1815    1814    1813    1823    1815    1814    1817    1818
    1815    1814    1817    1819    1815    1814    1817    1820
    1816    1814    1813    1823    1816    1814    1817    1818
    1816    1814    1817    1819    1816    1814    1817    1820
    1817    1814    1813    1823    1817    1820    1823    1824
    1818    1817    1820    1821    1818    1817    1820    1822
    1818    1817    1820    1823    1819    1817    1820    1821
    1819    1817    1820    1822    1819    1817    1820    1823
    1821    1820    1823    1824    1822    1820    1823    1824
    1825    1829    1830    1831    1825    1829    1830    1832
    1825    1829    1830    1833    1825    1829    1839    1836
    1825    1829    1839    1840    1826    1825    1829    1830
    1826    1825    1829    1839    1827    1825    1829    1830
    1827    1825    1829    1839    1828    1825    1829    1830
    1828    1825    1829    1839    1829    1830    1833    1834
    1829    1830    1833    1835    1829    1830    1833    1836
    1829    1839    1836    1833    1829    1839    1836    1837
    1829    1839    1836    1838    1830    1829    1839    1836
    1830    1829    1839    1840    1830    1833    1836    1837
    1830    1833    1836    1838    1830    1833    1836    1839
    1831    1830    1829    1839    1831    1830    1833    1834
    1831    1830    1833    1835    1831    1830    1833    1836
    1832    1830    1829    1839    1832    1830    1833    1834
    1832    1830    1833    1835    1832    1830    1833    1836
    1833    1830    1829    1839    1833    1836    1839    1840
    1834    1833    1836    1837    1834    1833    1836    1838
    1834    1833    1836    1839    1835    1833    1836    1837
    1835    1833    1836    1838    1835    1833    1836    1839
    1837    1836    1839    1840    1838    1836    1839    1840
    1841    1845    1846    1847    1841    1845    1846    1848
    1841    1845    1846    1849    1841    1845    1855    1852
    1841    1845    1855    1856    1842    1841    1845    1846
    1842    1841    1845    1855    1843    1841    1845    1846
    1843    1841    1845    1855    1844    1841    1845    1846
    1844    1841    1845    1855    1845    1846    1849    1850
    1845    1846    1849    1851    1845    1846    1849    1852
    1845    1855    1852    1849    1845    1855    1852    1853
    1845    1855    1852    1854    1846    1845    1855    1852
    1846    1845    1855    1856    1846    1849    1852    1853
    1846    1849    1852    1854    1846    1849    1852    1855
    1847    1846    1845    1855    1847    1846    1849    1850
    1847    1846    1849    1851    1847    1846    1849    1852
    1848    1846    1845    1855    1848    1846    1849    1850
    1848    1846    1849    1851    1848    1846    1849    1852
    1849    1846    1845    1855    1849    1852    1855    1856
    1850    1849    1852    1853    1850    1849    1852    1854
    1850    1849    1852    1855    1851    1849    1852    1853
    1851    1849    1852    1854    1851    1849    1852    1855
    1853    1852    1855    1856    1854    1852    1855    1856
    1857    1861    1862    1863    1857    1861    1862    1864
    1857    1861    1862    1865    1857    1861    1871    1868
    1857    1861    1871    1872    1858    1857    1861    1862
    1858    1857    1861    1871    1859    1857    1861    1862
    1859    1857    1861    1871    1860    1857    1861    1862
    1860    1857    1861    1871    1861    1862    1865    1866
    1861    1862    1865    1867    1861    1862    1865    1868
    1861    1871    1868    1865    1861    1871    1868    1869
    1861    1871    1868    1870    1862    1861    1871    1868
    1862    1861    1871    1872    1862    1865    1868    1869
    1862    1865    1868    1870    1862    1865    1868    1871
    1863    1862    1861    1871    1863    1862    1865    1866
    1863    1862    1865    1867    1863    1862    1865    1868
    1864    1862    1861    1871    1864    1862    1865    1866
    1864    1862    1865    1867    1864    1862    1865    1868
    1865    1862    1861    1871    1865    1868    1871    1872
    1866    1865    1868    1869    1866    1865    1868    1870
    1866    1865    1868    1871    1867    1865    1868    1869
    1867    1865    1868    1870    1867    1865    1868    1871
    1869    1868    1871    1872    1870    1868    1871    1872
    1873    1877    1878    1879    1873    1877    1878    1880
    1873    1877    1878    1881    1873    1877    1887    1884
    1873    1877    1887    1888    1874    1873    1877    1878
    1874    1873    1877    1887    1875    1873    1877    1878
    1875    1873    1877    1887    1876    1873    1877    1878
    1876    1873    1877    1887    1877    1878    1881    1882
    1877    1878    1881    1883    1877    1878    1881    1884
    1877    1887    1884    1881    1877    1887    1884    1885
    1877    1887    1884    1886    1878    1877    1887    1884
    1878    1877    1887    1888    1878    1881    1884    1885
    1878    1881    1884    1886    1878    1881    1884    1887
    1879    1878    1877    1887    1879    1878    1881    1882
    1879    1878    1881    1883    1879    1878    1881    1884
    1880    1878    1877    1887    1880    1878    1881    1882
    1880    1878    1881    1883    1880    1878    1881    1884
    1881    1878    1877    1887    1881    1884    1887    1888
    1882    1881    1884    1885    1882    1881    1884    1886
    1882    1881    1884    1887    1883    1881    1884    1885
    1883    1881    1884    1886    1883    1881    1884    1887
    1885    1884    1887    1888    1886    1884    1887    1888
    1889    1893    1894    1895    1889    1893    1894    1896
    1889    1893    1894    1897    1889    1893    1903    1900
    1889    1893    1903    1904    1890    1889    1893    1894
    1890    1889    1893    1903    1891    1889    1893    1894
    1891    1889    1893    1903    1892    1889    1893    1894
    1892    1889    1893    1903    1893    1894    1897    1898
    1893    1894    1897    1899    1893    1894    1897    1900
    1893    1903    1900    1897    1893    1903    1900    1901
    1893    1903    1900    1902    1894    1893    1903    1900
    1894    1893    1903    1904    1894    1897    1900    1901
    1894    1897    1900    1902    1894    1897    1900    1903
    1895    1894    1893    1903    1895    1894    1897    1898
    1895    1894    1897    1899    1895    1894    1897    1900
    1896    1894    1893    1903    1896    1894    1897    1898
    1896    1894    1897    1899    1896    1894    1897    1900
    1897    1894    1893    1903    1897    1900    1903    1904
    1898    1897    1900    1901    1898    1897    1900    1902
    1898    1897    1900    1903    1899    1897    1900    1901
    1899    1897    1900    1902    1899    1897    1900    1903
    1901    1900    1903    1904    1902    1900    1903    1904
    1905    1909    1910    1911    1905    1909    1910    1912
    1905    1909    1910    1913    1905    1909    1919    1916
    1905    1909    1919    1920    1906    1905    1909    1910
    1906    1905    1909    1919    1907    1905    1909    1910
    1907    1905    1909    1919    1908    1905    1909    1910
    1908    1905    1909    1919    1909    1910    1913    1914
    1909    1910    1913    1915    1909    1910    1913    1916
    1909    1919    1916    1913    1909    1919    1916    1917
    1909    1919    1916    1918    1910    1909    1919    1916
    1910    1909    1919    1920    1910    1913    1916    1917
    1910    1913    1916    1918    1910    1913    1916    1919
    1911    1910    1909    1919    1911    1910    1913    1914
    1911    1910    1913    1915    1911    1910    1913    1916
    1912    1910    1909    1919    1912    1910    1913    1914
    1912    1910    1913    1915    1912    1910    1913    1916
    1913    1910    1909    1919    1913    1916    1919    1920
    1914    1913    1916    1917    1914    1913    1916    1918
    1914    1913    1916    1919    1915    1913    1916    1917
    1915    1913    1916    1918    1915    1913    1916    1919
    1917    1916    1919    1920    1918    1916    1919    1920
    1921    1925    1926    1927    1921    1925    1926    1928
    1921    1925    1926    1929    1921    1925    1935    1932
    1921    1925    1935    1936    1922    1921    1925    1926
    1922    1921    1925    1935    1923    1921    1925    1926
    1923    1921    1925    1935    1924    1921    1925    1926
    1924    1921    1925    1935    1925    1926    1929    1930
    1925    1926    1929    1931    1925    1926    1929    1932
    1925    1935    1932    1929    1925    1935    1932    1933
    1925    1935    1932    1934    1926    1925    1935    1932
    1926    1925    1935    1936    1926    1929    1932    1933
    1926    1929    1932    1934    1926    1929    1932    1935
    1927    1926    1925    1935    1927    1926    1929    1930
    1927    1926    1929    1931    1927    1926    1929    1932
    1928    1926    1925    1935    1928    1926    1929    1930
    1928    1926    1929    1931    1928    1926    1929    1932
    1929    1926    1925    1935    1929    1932    1935    1936
    1930    1929    1932    1933    1930    1929    1932    1934
    1930    1929    1932    1935    1931    1929    1932    1933
    1931    1929    1932    1934    1931    1929    1932    1935
    1933    1932    1935    1936    1934    1932    1935    1936
    1937    1941    1942    1943    1937    1941    1942    1944
    1937    1941    1942    1945    1937    1941    1951    1948
    1937    1941    1951    1952    1938    1937    1941    1942
    1938    1937    1941    1951    1939    1937    1941    1942
    1939    1937    1941    1951    1940    1937    1941    1942
    1940    1937    1941    1951    1941    1942    1945    1946
    1941    1942    1945    1947    1941    1942    1945    1948
    1941    1951    1948    1945    1941    1951    1948    1949
    1941    1951    1948    1950    1942    1941    1951    1948
    1942    1941    1951    1952    1942    1945    1948    1949
    1942    1945    1948    1950    1942    1945    1948    1951
    1943    1942    1941    1951    1943    1942    1945    1946
    1943    1942    1945    1947    1943    1942    1945    1948
    1944    1942    1941    1951    1944    1942    1945    1946
    1944    1942    1945    1947    1944    1942    1945    1948
    1945    1942    1941    1951    1945    1948    1951    1952
    1946    1945    1948    1949    1946    1945    1948    1950
    1946    1945    1948    1951    1947    1945    1948    1949
    1947    1945    1948    1950    1947    1945    1948    1951
    1949    1948    1951    1952    1950    1948    1951    1952
    1953    1957    1958    1959    1953    1957    1958    1960
    1953    1957    1958    1961    1953    1957    1967    1964
    1953    1957    1967    1968    1954    1953    1957    1958
    1954    1953    1957    1967    1955    1953    1957    1958
    1955    1953    1957    1967    1956    1953    1957    1958
    1956    1953    1957    1967    1957    1958    1961    1962
    1957    1958    1961    1963    1957    1958    1961    1964
    1957    1967    1964    1961    1957    1967    1964    1965
    1957    1967    1964    1966    1958    1957    1967    1964
    1958    1957    1967    1968    1958    1961    1964    1965
    1958    1961    1964    1966    1958    1961    1964    1967
    1959    1958    1957    1967    1959    1958    1961    1962
    1959    1958    1961    1963    1959    1958    1961    1964
    1960    1958    1957    1967    1960    1958    1961    1962
    1960    1958    1961    1963    1960    1958    1961    1964
    1961    1958    1957    1967    1961    1964    1967    1968
    1962    1961    1964    1965    1962    1961    1964    1966
    1962    1961    1964    1967    1963    1961    1964    1965
    1963    1961    1964    1966    1963    1961    1964    1967
    1965    1964    1967    1968    1966    1964    1967    1968
    1969    1973    1974    1975    1969    1973    1974    1976
    1969    1973    1974    1977    1969    1973    1983    1980
    1969    1973    1983    1984    1970    1969    1973    1974
    1970    1969    1973    1983    1971    1969    1973    1974
    1971    1969    1973    1983    1972    1969    1973    1974
    1972    1969    1973    1983    1973    1974    1977    1978
    1973    1974    1977    1979    1973    1974    1977    1980
    1973    1983    1980    1977    1973    1983    1980    1981
    1973    1983    1980    1982    1974    1973    1983    1980
    1974    1973    1983    1984    1974    1977    1980    1981
    1974    1977    1980    1982    1974    1977    1980    1983
    1975    1974    1973    1983    1975    1974    1977    1978
    1975    1974    1977    1979    1975    1974    1977    1980
    1976    1974    1973    1983    1976    1974    1977    1978
    1976    1974    1977    1979    1976    1974    1977    1980
    1977    1974    1973    1983    1977    1980    1983    1984
    1978    1977    1980    1981    1978    1977    1980    1982
    1978    1977    1980    1983    1979    1977    1980    1981
    1979    1977    1980    1982    1979    1977    1980    1983
    1981    1980    1983    1984    1982    1980    1983    1984
    1985    1989    1990    1991    1985    1989    1990    1992
    1985    1989    1990    1993    1985    1989    1999    1996
    1985    1989    1999    2000    1986    1985    1989    1990
    1986    1985    1989    1999    1987    1985    1989    1990
    1987    1985    1989    1999    1988    1985    1989    1990
    1988    1985    1989    1999    1989    1990    1993    1994
    1989    1990    1993    1995    1989    1990    1993    1996
    1989    1999    1996    1993    1989    1999    1996    1997
    1989    1999    1996    1998    1990    1989    1999    1996
    1990    1989    1999    2000    1990    1993    1996    1997
    1990    1993    1996    1998    1990    1993    1996    1999
    1991    1990    1989    1999    1991    1990    1993    1994
    1991    1990    1993    1995    1991    1990    1993    1996
    1992    1990    1989    1999    1992    1990    1993    1994
    1992    1990    1993    1995    1992    1990    1993    1996
    1993    1990    1989    1999    1993    1996    1999    2000
    1994    1993    1996    1997    1994    1993    1996    1998
    1994    1993    1996    1999    1995    1993    1996    1997
    1995    1993    1996    1998    1995    1993    1996    1999
    1997    1996    1999    2000    1998    1996    1999    2000
    2001    2005    2006    2007    2001    2005    2006    2008
    2001    2005    2006    2009    2001    2005    2015    2012
    2001    2005    2015    2016    2002    2001    2005    2006
    2002    2001    2005    2015    2003    2001    2005    2006
    2003    2001    2005    2015    2004    2001    2005    2006
    2004    2001    2005    2015    2005    2006    2009    2010
    2005    2006    2009    2011    2005    2006    2009    2012
    2005    2015    2012    2009    2005    2015    2012    2013
    2005    2015    2012    2014    2006    2005    2015    2012
    2006    2005    2015    2016    2006    2009    2012    2013
    2006    2009    2012    2014    2006    2009    2012    2015
    2007    2006    2005    2015    2007    2006    2009    2010
    2007    2006    2009    2011    2007    2006    2009    2012
    2008    2006    2005    2015    2008    2006    2009    2010
    2008    2006    2009    2011    2008    2006    2009    2012
    2009    2006    2005    2015    2009    2012    2015    2016
    2010    2009    2012    2013    2010    2009    2012    2014
    2010    2009    2012    2015    2011    2009    2012    2013
    2011    2009    2012    2014    2011    2009    2012    2015
    2013    2012    2015    2016    2014    2012    2015    2016
    2017    2021    2022    2023    2017    2021    2022    2024
    2017    2021    2022    2025    2017    2021    2031    2028
    2017    2021    2031    2032    2018    2017    2021    2022
    2018    2017    2021    2031    2019    2017    2021    2022
    2019    2017    2021    2031    2020    2017    2021    2022
    2020    2017    2021    2031    2021    2022    2025    2026
    2021    2022    2025    2027    2021    2022    2025    2028
    2021    2031    2028    2025    2021    2031    2028    2029
    2021    2031    2028    2030    2022    2021    2031    2028
    2022    2021    2031    2032    2022    2025    2028    2029
    2022    2025    2028    2030    2022    2025    2028    2031
    2023    2022    2021    2031    2023    2022    2025    2026
    2023    2022    2025    2027    2023    2022    2025    2028
    2024    2022    2021    2031    2024    2022    2025    2026
    2024    2022    2025    2027    2024    2022    2025    2028
    2025    2022    2021    2031    2025    2028    2031    2032
    2026    2025    2028    2029    2026    2025    2028    2030
    2026    2025    2028    2031    2027    2025    2028    2029
    2027    2025    2028    2030    2027    2025    2028    2031
    2029    2028    2031    2032    2030    2028    2031    2032
    2033    2037    2038    2039    2033    2037    2038    2040
    2033    2037    2038    2041    2033    2037    2047    2044
    2033    2037    2047    2048    2034    2033    2037    2038
    2034    2033    2037    2047    2035    2033    2037    2038
    2035    2033    2037    2047    2036    2033    2037    2038
    2036    2033    2037    2047    2037    2038    2041    2042
    2037    2038    2041    2043    2037    2038    2041    2044
    2037    2047    2044    2041    2037    2047    2044    2045
    2037    2047    2044    2046    2038    2037    2047    2044
    2038    2037    2047    2048    2038    2041    2044    2045
    2038    2041    2044    2046    2038    2041    2044    2047
    2039    2038    2037    2047    2039    2038    2041    2042
    2039    2038    2041    2043    2039    2038    2041    2044
    2040    2038    2037    2047    2040    2038    2041    2042
    2040    2038    2041    2043    2040    2038    2041    2044
    2041    2038    2037    2047    2041    2044    2047    2048
    2042    2041    2044    2045    2042    2041    2044    2046
    2042    2041    2044    2047    2043    2041    2044    2045
    2043    2041    2044    2046    2043    2041    2044    2047
    2045    2044    2047    2048    2046    2044    2047    2048
    2049    2053    2054    2055    2049    2053    2054    2056
    2049    2053    2054    2057    2049    2053    2063    2060
    2049    2053    2063    2064    2050    2049    2053    2054
    2050    2049    2053    2063    2051    2049    2053    2054
    2051    2049    2053    2063    2052    2049    2053    2054
    2052    2049    2053    2063    2053    2054    2057    2058
    2053    2054    2057    2059    2053    2054    2057    2060
    2053    2063    2060    2057    2053    2063    2060    2061
    2053    2063    2060    2062    2054    2053    2063    2060
    2054    2053    2063    2064    2054    2057    2060    2061
    2054    2057    2060    2062    2054    2057    2060    2063
    2055    2054    2053    2063    2055    2054    2057    2058
    2055    2054    2057    2059    2055    2054    2057    2060
    2056    2054    2053    2063    2056    2054    2057    2058
    2056    2054    2057    2059    2056    2054    2057    2060
    2057    2054    2053    2063    2057    2060    2063    2064
    2058    2057    2060    2061    2058    2057    2060    2062
    2058    2057    2060    2063    2059    2057    2060    2061
    2059    2057    2060    2062    2059    2057    2060    2063
    2061    2060    2063    2064    2062    2060    2063    2064
    2065    2069    2070    2071    2065    2069    2070    2072
    2065    2069    2070    2073    2065    2069    2079    2076
    2065    2069    2079    2080    2066    2065    2069    2070
    2066    2065    2069    2079    2067    2065    2069    2070
    2067    2065    2069    2079    2068    2065    2069    2070
    2068    2065    2069    2079    2069    2070    2073    2074
    2069    2070    2073    2075    2069    2070    2073    2076
    2069    2079    2076    2073    2069    2079    2076    2077
    2069    2079    2076    2078    2070    2069    2079    2076
    2070    2069    2079    2080    2070    2073    2076    2077
    2070    2073    2076    2078    2070    2073    2076    2079
    2071    2070    2069    2079    2071    2070    2073    2074
    2071    2070    2073    2075    2071    2070    2073    2076
    2072    2070    2069    2079    2072    2070    2073    2074
    2072    2070    2073    2075    2072    2070    2073    2076
    2073    2070    2069    2079    2073    2076    2079    2080
    2074    2073    2076    2077    2074    2073    2076    2078
    2074    2073    2076    2079    2075    2073    2076    2077
    2075    2073    2076    2078    2075    2073    2076    2079
    2077    2076    2079    2080    2078    2076    2079    2080
    2081    2085    2086    2087    2081    2085    2086    2088
    2081    2085    2086    2089    2081    2085    2095    2092
    2081    2085    2095    2096    2082    2081    2085    2086
    2082    2081    2085    2095    2083    2081    2085    2086
    2083    2081    2085    2095    2084    2081    2085    2086
    2084    2081    2085    2095    2085    2086    2089    2090
    2085    2086    2089    2091    2085    2086    2089    2092
    2085    2095    2092    2089    2085    2095    2092    2093
    2085    2095    2092    2094    2086    2085    2095    2092
    2086    2085    2095    2096    2086    2089    2092    2093
    2086    2089    2092    2094    2086    2089    2092    2095
    2087    2086    2085    2095    2087    2086    2089    2090
    2087    2086    2089    2091    2087    2086    2089    2092
    2088    2086    2085    2095    2088    2086    2089    2090
    2088    2086    2089    2091    2088    2086    2089    2092
    2089    2086    2085    2095    2089    2092    2095    2096
    2090    2089    2092    2093    2090    2089    2092    2094
    2090    2089    2092    2095    2091    2089    2092    2093
    2091    2089    2092    2094    2091    2089    2092    2095
    2093    2092    2095    2096    2094    2092    2095    2096
    2097    2101    2102    2103    2097    2101    2102    2104
    2097    2101    2102    2105    2097    2101    2111    2108
    2097    2101    2111    2112    2098    2097    2101    2102
    2098    2097    2101    2111    2099    2097    2101    2102
    2099    2097    2101    2111    2100    2097    2101    2102
    2100    2097    2101    2111    2101    2102    2105    2106
    2101    2102    2105    2107    2101    2102    2105    2108
    2101    2111    2108    2105    2101    2111    2108    2109
    2101    2111    2108    2110    2102    2101    2111    2108
    2102    2101    2111    2112    2102    2105    2108    2109
    2102    2105    2108    2110    2102    2105    2108    2111
    2103    2102    2101    2111    2103    2102    2105    2106
    2103    2102    2105    2107    2103    2102    2105    2108
    2104    2102    2101    2111    2104    2102    2105    2106
    2104    2102    2105    2107    2104    2102    2105    2108
    2105    2102    2101    2111    2105    2108    2111    2112
    2106    2105    2108    2109    2106    2105    2108    2110
    2106    2105    2108    2111    2107    2105    2108    2109
    2107    2105    2108    2110    2107    2105    2108    2111
    2109    2108    2111    2112    2110    2108    2111    2112
    2113    2117    2118    2119    2113    2117    2118    2120
    2113    2117    2118    2121    2113    2117    2127    2124
    2113    2117    2127    2128    2114    2113    2117    2118
    2114    2113    2117    2127    2115    2113    2117    2118
    2115    2113    2117    2127    2116    2113    2117    2118
    2116    2113    2117    2127    2117    2118    2121    2122
    2117    2118    2121    2123    2117    2118    2121    2124
    2117    2127    2124    2121    2117    2127    2124    2125
    2117    2127    2124    2126    2118    2117    2127    2124
    2118    2117    2127    2128    2118    2121    2124    2125
    2118    2121    2124    2126    2118    2121    2124    2127
    2119    2118    2117    2127    2119    2118    2121    2122
    2119    2118    2121    2123    2119    2118    2121    2124
    2120    2118    2117    2127    2120    2118    2121    2122
    2120    2118    2121    2123    2120    2118    2121    2124
    2121    2118    2117    2127    2121    2124    2127    2128
    2122    2121    2124    2125    2122    2121    2124    2126
    2122    2121    2124    2127    2123    2121    2124    2125
    2123    2121    2124    2126    2123    2121    2124    2127
    2125    2124    2127    2128    2126    2124    2127    2128
    2129    2133    2134    2135    2129    2133    2134    2136
    2129    2133    2134    2137    2129    2133    2143    2140
    2129    2133    2143    2144    2130    2129    2133    2134
    2130    2129    2133    2143    2131    2129    2133    2134
    2131    2129    2133    2143    2132    2129    2133    2134
    2132    2129    2133    2143    2133    2134    2137    2138
    2133    2134    2137    2139    2133    2134    2137    2140
    2133    2143    2140    2137    2133    2143    2140    2141
    2133    2143    2140    2142    2134    2133    2143    2140
    2134    2133    2143    2144    2134    2137    2140    2141
    2134    2137    2140    2142    2134    2137    2140    2143
    2135    2134    2133    2143    2135    2134    2137    2138
    2135    2134    2137    2139    2135    2134    2137    2140
    2136    2134    2133    2143    2136    2134    2137    2138
    2136    2134    2137    2139    2136    2134    2137    2140
    2137    2134    2133    2143    2137    2140    2143    2144
    2138    2137    2140    2141    2138    2137    2140    2142
    2138    2137    2140    2143    2139    2137    2140    2141
    2139    2137    2140    2142    2139    2137    2140    2143
    2141    2140    2143    2144    2142    2140    2143    2144
    2145    2149    2150    2151    2145    2149    2150    2152
    2145    2149    2150    2153    2145    2149    2159    2156
    2145    2149    2159    2160    2146    2145    2149    2150
    2146    2145    2149    2159    2147    2145    2149    2150
    2147    2145    2149    2159    2148    2145    2149    2150
    2148    2145    2149    2159    2149    2150    2153    2154
    2149    2150    2153    2155    2149    2150    2153    2156
    2149    2159    2156    2153    2149    2159    2156    2157
    2149    2159    2156    2158    2150    2149    2159    2156
    2150    2149    2159    2160    2150    2153    2156    2157
    2150    2153    2156    2158    2150    2153    2156    2159
    2151    2150    2149    2159    2151    2150    2153    2154
    2151    2150    2153    2155    2151    2150    2153    2156
    2152    2150    2149    2159    2152    2150    2153    2154
    2152    2150    2153    2155    2152    2150    2153    2156
    2153    2150    2149    2159    2153    2156    2159    2160
    2154    2153    2156    2157    2154    2153    2156    2158
    2154    2153    2156    2159    2155    2153    2156    2157
    2155    2153    2156    2158    2155    2153    2156    2159
    2157    2156    2159    2160    2158    2156    2159    2160
    2161    2165    2166    2167    2161    2165    2166    2168
    2161    2165    2166    2169    2161    2165    2175    2172
    2161    2165    2175    2176    2162    2161    2165    2166
    2162    2161    2165    2175    2163    2161    2165    2166
    2163    2161    2165    2175    2164    2161    2165    2166
    2164    2161    2165    2175    2165    2166    2169    2170
    2165    2166    2169    2171    2165    2166    2169    2172
    2165    2175    2172    2169    2165    2175    2172    2173
    2165    2175    2172    2174    2166    2165    2175    2172
    2166    2165    2175    2176    2166    2169    2172    2173
    2166    2169    2172    2174    2166    2169    2172    2175
    2167    2166    2165    2175    2167    2166    2169    2170
    2167    2166    2169    2171    2167    2166    2169    2172
    2168    2166    2165    2175    2168    2166    2169    2170
    2168    2166    2169    2171    2168    2166    2169    2172
    2169    2166    2165    2175    2169    2172    2175    2176
    2170    2169    2172    2173    2170    2169    2172    2174
    2170    2169    2172    2175    2171    2169    2172    2173
    2171    2169    2172    2174    2171    2169    2172    2175
    2173    2172    2175    2176    2174    2172    2175    2176
    2177    2181    2182    2183    2177    2181    2182    2184
    2177    2181    2182    2185    2177    2181    2191    2188
    2177    2181    2191    2192    2178    2177    2181    2182
    2178    2177    2181    2191    2179    2177    2181    2182
    2179    2177    2181    2191    2180    2177    2181    2182
    2180    2177    2181    2191    2181    2182    2185    2186
    2181    2182    2185    2187    2181    2182    2185    2188
    2181    2191    2188    2185    2181    2191    2188    2189
    2181    2191    2188    2190    2182    2181    2191    2188
    2182    2181    2191    2192    2182    2185    2188    2189
    2182    2185    2188    2190    2182    2185    2188    2191
    2183    2182    2181    2191    2183    2182    2185    2186
    2183    2182    2185    2187    2183    2182    2185    2188
    2184    2182    2181    2191    2184    2182    2185    2186
    2184    2182    2185    2187    2184    2182    2185    2188
    2185    2182    2181    2191    2185    2188    2191    2192
    2186    2185    2188    2189    2186    2185    2188    2190
    2186    2185    2188    2191    2187    2185    2188    2189
    2187    2185    2188    2190    2187    2185    2188    2191
    2189    2188    2191    2192    2190    2188    2191    2192
    2193    2197    2198    2199    2193    2197    2198    2200
    2193    2197    2198    2201    2193    2197    2207    2204
    2193    2197    2207    2208    2194    2193    2197    2198
    2194    2193    2197    2207    2195    2193    2197    2198
    2195    2193    2197    2207    2196    2193    2197    2198
    2196    2193    2197    2207    2197    2198    2201    2202
    2197    2198    2201    2203    2197    2198    2201    2204
    2197    2207    2204    2201    2197    2207    2204    2205
    2197    2207    2204    2206    2198    2197    2207    2204
    2198    2197    2207    2208    2198    2201    2204    2205
    2198    2201    2204    2206    2198    2201    2204    2207
    2199    2198    2197    2207    2199    2198    2201    2202
    2199    2198    2201    2203    2199    2198    2201    2204
    2200    2198    2197    2207    2200    2198    2201    2202
    2200    2198    2201    2203    2200    2198    2201    2204
    2201    2198    2197    2207    2201    2204    2207    2208
    2202    2201    2204    2205    2202    2201    2204    2206
    2202    2201    2204    2207    2203    2201    2204    2205
    2203    2201    2204    2206    2203    2201    2204    2207
    2205    2204    2207    2208    2206    2204    2207    2208
    2209    2213    2214    2215    2209    2213    2214    2216
    2209    2213    2214    2217    2209    2213    2223    2220
    2209    2213    2223    2224    2210    2209    2213    2214
    2210    2209    2213    2223    2211    2209    2213    2214
    2211    2209    2213    2223    2212    2209    2213    2214
    2212    2209    2213    2223    2213    2214    2217    2218
    2213    2214    2217    2219    2213    2214    2217    2220
    2213    2223    2220    2217    2213    2223    2220    2221
    2213    2223    2220    2222    2214    2213    2223    2220
    2214    2213    2223    2224    2214    2217    2220    2221
    2214    2217    2220    2222    2214    2217    2220    2223
    2215    2214    2213    2223    2215    2214    2217    2218
    2215    2214    2217    2219    2215    2214    2217    2220
    2216    2214    2213    2223    2216    2214    2217    2218
    2216    2214    2217    2219    2216    2214    2217    2220
    2217    2214    2213    2223    2217    2220    2223    2224
    2218    2217    2220    2221    2218    2217    2220    2222
    2218    2217    2220    2223    2219    2217    2220    2221
    2219    2217    2220    2222    2219    2217    2220    2223
    2221    2220    2223    2224    2222    2220    2223    2224
    2225    2229    2230    2231    2225    2229    2230    2232
    2225    2229    2230    2233    2225    2229    2239    2236
    2225    2229    2239    2240    2226    2225    2229    2230
    2226    2225    2229    2239    2227    2225    2229    2230
    2227    2225    2229    2239    2228    2225    2229    2230
    2228    2225    2229    2239    2229    2230    2233    2234
    2229    2230    2233    2235    2229    2230    2233    2236
    2229    2239    2236    2233    2229    2239    2236    2237
    2229    2239    2236    2238    2230    2229    2239    2236
    2230    2229    2239    2240    2230    2233    2236    2237
    2230    2233    2236    2238    2230    2233    2236    2239
    2231    2230    2229    2239    2231    2230    2233    2234
    2231    2230    2233    2235    2231    2230    2233    2236
    2232    2230    2229    2239    2232    2230    2233    2234
    2232    2230    2233    2235    2232    2230    2233    2236
    2233    2230    2229    2239    2233    2236    2239    2240
    2234    2233    2236    2237    2234    2233    2236    2238
    2234    2233    2236    2239    2235    2233    2236    2237
    2235    2233    2236    2238    2235    2233    2236    2239
    2237    2236    2239    2240    2238    2236    2239    2240
    2241    2245    2246    2247    2241    2245    2246    2248
    2241    2245    2246    2249    2241    2245    2255    2252
    2241    2245    2255    2256    2242    2241    2245    2246
    2242    2241    2245    2255    2243    2241    2245    2246
    2243    2241    2245    2255    2244    2241    2245    2246
    2244    2241    2245    2255    2245    2246    2249    2250
    2245    2246    2249    2251    2245    2246    2249    2252
    2245    2255    2252    2249    2245    2255    2252    2253
    2245    2255    2252    2254    2246    2245    2255    2252
    2246    2245    2255    2256    2246    2249    2252    2253
    2246    2249    2252    2254    2246    2249    2252    2255
    2247    2246    2245    2255    2247    2246    2249    2250
    2247    2246    2249    2251    2247    2246    2249    2252
    2248    2246    2245    2255    2248    2246    2249    2250
    2248    2246    2249    2251    2248    2246    2249    2252
    2249    2246    2245    2255    2249    2252    2255    2256
    2250    2249    2252    2253    2250    2249    2252    2254
    2250    2249    2252    2255    2251    2249    2252    2253
    2251    2249    2252    2254    2251    2249    2252    2255
    2253    2252    2255    2256    2254    2252    2255    2256
    2257    2261    2262    2263    2257    2261    2262    2264
    2257    2261    2262    2265    2257    2261    2271    2268
    2257    2261    2271    2272    2258    2257    2261    2262
    2258    2257    2261    2271    2259    2257    2261    2262
    2259    2257    2261    2271    2260    2257    2261    2262
    2260    2257    2261    2271    2261    2262    2265    2266
    2261    2262    2265    2267    2261    2262    2265    2268
    2261    2271    2268    2265    2261    2271    2268    2269
    2261    2271    2268    2270    2262    2261    2271    2268
    2262    2261    2271    2272    2262    2265    2268    2269
    2262    2265    2268    2270    2262    2265    2268    2271
    2263    2262    2261    2271    2263    2262    2265    2266
    2263    2262    2265    2267    2263    2262    2265    2268
    2264    2262    2261    2271    2264    2262    2265    2266
    2264    2262    2265    2267    2264    2262    2265    2268
    2265    2262    2261    2271    2265    2268    2271    2272
    2266    2265    2268    2269    2266    2265    2268    2270
    2266    2265    2268    2271    2267    2265    2268    2269
    2267    2265    2268    2270    2267    2265    2268    2271
    2269    2268    2271    2272    2270    2268    2271    2272
    2273    2277    2278    2279    2273    2277    2278    2280
    2273    2277    2278    2281    2273    2277    2287    2284
    2273    2277    2287    2288    2274    2273    2277    2278
    2274    2273    2277    2287    2275    2273    2277    2278
    2275    2273    2277    2287    2276    2273    2277    2278
    2276    2273    2277    2287    2277    2278    2281    2282
    2277    2278    2281    2283    2277    2278    2281    2284
    2277    2287    2284    2281    2277    2287    2284    2285
    2277    2287    2284    2286    2278    2277    2287    2284
    2278    2277    2287    2288    2278    2281    2284    2285
    2278    2281    2284    2286    2278    2281    2284    2287
    2279    2278    2277    2287    2279    2278    2281    2282
    2279    2278    2281    2283    2279    2278    2281    2284
    2280    2278    2277    2287    2280    2278    2281    2282
    2280    2278    2281    2283    2280    2278    2281    2284
    2281    2278    2277    2287    2281    2284    2287    2288
    2282    2281    2284    2285    2282    2281    2284    2286
    2282    2281    2284    2287    2283    2281    2284    2285
    2283    2281    2284    2286    2283    2281    2284    2287
    2285    2284    2287    2288    2286    2284    2287    2288
    2289    2293    2294    2295    2289    2293    2294    2296
    2289    2293    2294    2297    2289    2293    2303    2300
    2289    2293    2303    2304    2290    2289    2293    2294
    2290    2289    2293    2303    2291    2289    2293    2294
    2291    2289    2293    2303    2292    2289    2293    2294
    2292    2289    2293    2303    2293    2294    2297    2298
    2293    2294    2297    2299    2293    2294    2297    2300
    2293    2303    2300    2297    2293    2303    2300    2301
    2293    2303    2300    2302    2294    2293    2303    2300
    2294    2293    2303    2304    2294    2297    2300    2301
    2294    2297    2300    2302    2294    2297    2300    2303
    2295    2294    2293    2303    2295    2294    2297    2298
    2295    2294    2297    2299    2295    2294    2297    2300
    2296    2294    2293    2303    2296    2294    2297    2298
    2296    2294    2297    2299    2296    2294    2297    2300
    2297    2294    2293    2303    2297    2300    2303    2304
    2298    2297    2300    2301    2298    2297    2300    2302
    2298    2297    2300    2303    2299    2297    2300    2301
    2299    2297    2300    2302    2299    2297    2300    2303
    2301    2300    2303    2304    2302    2300    2303    2304
    2305    2309    2310    2311    2305    2309    2310    2312
    2305    2309    2310    2313    2305    2309    2319    2316
    2305    2309    2319    2320    2306    2305    2309    2310
    2306    2305    2309    2319    2307    2305    2309    2310
    2307    2305    2309    2319    2308    2305    2309    2310
    2308    2305    2309    2319    2309    2310    2313    2314
    2309    2310    2313    2315    2309    2310    2313    2316
    2309    2319    2316    2313    2309    2319    2316    2317
    2309    2319    2316    2318    2310    2309    2319    2316
    2310    2309    2319    2320    2310    2313    2316    2317
    2310    2313    2316    2318    2310    2313    2316    2319
    2311    2310    2309    2319    2311    2310    2313    2314
    2311    2310    2313    2315    2311    2310    2313    2316
    2312    2310    2309    2319    2312    2310    2313    2314
    2312    2310    2313    2315    2312    2310    2313    2316
    2313    2310    2309    2319    2313    2316    2319    2320
    2314    2313    2316    2317    2314    2313    2316    2318
    2314    2313    2316    2319    2315    2313    2316    2317
    2315    2313    2316    2318    2315    2313    2316    2319
    2317    2316    2319    2320    2318    2316    2319    2320
    2321    2325    2326    2327    2321    2325    2326    2328
    2321    2325    2326    2329    2321    2325    2335    2332
    2321    2325    2335    2336    2322    2321    2325    2326
    2322    2321    2325    2335    2323    2321    2325    2326
    2323    2321    2325    2335    2324    2321    2325    2326
    2324    2321    2325    2335    2325    2326    2329    2330
    2325    2326    2329    2331    2325    2326    2329    2332
    2325    2335    2332    2329    2325    2335    2332    2333
    2325    2335    2332    2334    2326    2325    2335    2332
    2326    2325    2335    2336    2326    2329    2332    2333
    2326    2329    2332    2334    2326    2329    2332    2335
    2327    2326    2325    2335    2327    2326    2329    2330
    2327    2326    2329    2331    2327    2326    2329    2332
    2328    2326    2325    2335    2328    2326    2329    2330
    2328    2326    2329    2331    2328    2326    2329    2332
    2329    2326    2325    2335    2329    2332    2335    2336
    2330    2329    2332    2333    2330    2329    2332    2334
    2330    2329    2332    2335    2331    2329    2332    2333
    2331    2329    2332    2334    2331    2329    2332    2335
    2333    2332    2335    2336    2334    2332    2335    2336
    2337    2341    2342    2343    2337    2341    2342    2344
    2337    2341    2342    2345    2337    2341    2351    2348
    2337    2341    2351    2352    2338    2337    2341    2342
    2338    2337    2341    2351    2339    2337    2341    2342
    2339    2337    2341    2351    2340    2337    2341    2342
    2340    2337    2341    2351    2341    2342    2345    2346
    2341    2342    2345    2347    2341    2342    2345    2348
    2341    2351    2348    2345    2341    2351    2348    2349
    2341    2351    2348    2350    2342    2341    2351    2348
    2342    2341    2351    2352    2342    2345    2348    2349
    2342    2345    2348    2350    2342    2345    2348    2351
    2343    2342    2341    2351    2343    2342    2345    2346
    2343    2342    2345    2347    2343    2342    2345    2348
    2344    2342    2341    2351    2344    2342    2345    2346
    2344    2342    2345    2347    2344    2342    2345    2348
    2345    2342    2341    2351    2345    2348    2351    2352
    2346    2345    2348    2349    2346    2345    2348    2350
    2346    2345    2348    2351    2347    2345    2348    2349
    2347    2345    2348    2350    2347    2345    2348    2351
    2349    2348    2351    2352    2350    2348    2351    2352
    2353    2357    2358    2359    2353    2357    2358    2360
    2353    2357    2358    2361    2353    2357    2367    2364
    2353    2357    2367    2368    2354    2353    2357    2358
    2354    2353    2357    2367    2355    2353    2357    2358
    2355    2353    2357    2367    2356    2353    2357    2358
    2356    2353    2357    2367    2357    2358    2361    2362
    2357    2358    2361    2363    2357    2358    2361    2364
    2357    2367    2364    2361    2357    2367    2364    2365
    2357    2367    2364    2366    2358    2357    2367    2364
    2358    2357    2367    2368    2358    2361    2364    2365
    2358    2361    2364    2366    2358    2361    2364    2367
    2359    2358    2357    2367    2359    2358    2361    2362
    2359    2358    2361    2363    2359    2358    2361    2364
    2360    2358    2357    2367    2360    2358    2361    2362
    2360    2358    2361    2363    2360    2358    2361    2364
    2361    2358    2357    2367    2361    2364    2367    2368
    2362    2361    2364    2365    2362    2361    2364    2366
    2362    2361    2364    2367    2363    2361    2364    2365
    2363    2361    2364    2366    2363    2361    2364    2367
    2365    2364    2367    2368    2366    2364    2367    2368
    2369    2373    2374    2375    2369    2373    2374    2376
    2369    2373    2374    2377    2369    2373    2383    2380
    2369    2373    2383    2384    2370    2369    2373    2374
    2370    2369    2373    2383    2371    2369    2373    2374
    2371    2369    2373    2383    2372    2369    2373    2374
    2372    2369    2373    2383    2373    2374    2377    2378
    2373    2374    2377    2379    2373    2374    2377    2380
    2373    2383    2380    2377    2373    2383    2380    2381
    2373    2383    2380    2382    2374    2373    2383    2380
    2374    2373    2383    2384    2374    2377    2380    2381
    2374    2377    2380    2382    2374    2377    2380    2383
    2375    2374    2373    2383    2375    2374    2377    2378
    2375    2374    2377    2379    2375    2374    2377    2380
    2376    2374    2373    2383    2376    2374    2377    2378
    2376    2374    2377    2379    2376    2374    2377    2380
    2377    2374    2373    2383    2377    2380    2383    2384
    2378    2377    2380    2381    2378    2377    2380    2382
    2378    2377    2380    2383    2379    2377    2380    2381
    2379    2377    2380    2382    2379    2377    2380    2383
    2381    2380    2383    2384    2382    2380    2383    2384
    2385    2389    2390    2391    2385    2389    2390    2392
    2385    2389    2390    2393    2385    2389    2399    2396
    2385    2389    2399    2400    2386    2385    2389    2390
    2386    2385    2389    2399    2387    2385    2389    2390
    2387    2385    2389    2399    2388    2385    2389    2390
    2388    2385    2389    2399    2389    2390    2393    2394
    2389    2390    2393    2395    2389    2390    2393    2396
    2389    2399    2396    2393    2389    2399    2396    2397
    2389    2399    2396    2398    2390    2389    2399    2396
    2390    2389    2399    2400    2390    2393    2396    2397
    2390    2393    2396    2398    2390    2393    2396    2399
    2391    2390    2389    2399    2391    2390    2393    2394
    2391    2390    2393    2395    2391    2390    2393    2396
    2392    2390    2389    2399    2392    2390    2393    2394
    2392    2390    2393    2395    2392    2390    2393    2396
    2393    2390    2389    2399    2393    2396    2399    2400
    2394    2393    2396    2397    2394    2393    2396    2398
    2394    2393    2396    2399    2395    2393    2396    2397
    2395    2393    2396    2398    2395    2393    2396    2399
    2397    2396    2399    2400    2398    2396    2399    2400
    2401    2405    2406    2407    2401    2405    2406    2408
    2401    2405    2406    2409    2401    2405    2415    2412
    2401    2405    2415    2416    2402    2401    2405    2406
    2402    2401    2405    2415    2403    2401    2405    2406
    2403    2401    2405    2415    2404    2401    2405    2406
    2404    2401    2405    2415    2405    2406    2409    2410
    2405    2406    2409    2411    2405    2406    2409    2412
    2405    2415    2412    2409    2405    2415    2412    2413
    2405    2415    2412    2414    2406    2405    2415    2412
    2406    2405    2415    2416    2406    2409    2412    2413
    2406    2409    2412    2414    2406    2409    2412    2415
    2407    2406    2405    2415    2407    2406    2409    2410
    2407    2406    2409    2411    2407    2406    2409    2412
    2408    2406    2405    2415    2408    2406    2409    2410
    2408    2406    2409    2411    2408    2406    2409    2412
    2409    2406    2405    2415    2409    2412    2415    2416
    2410    2409    2412    2413    2410    2409    2412    2414
    2410    2409    2412    2415    2411    2409    2412    2413
    2411    2409    2412    2414    2411    2409    2412    2415
    2413    2412    2415    2416    2414    2412    2415    2416
    2417    2421    2422    2423    2417    2421    2422    2424
    2417    2421    2422    2425    2417    2421    2431    2428
    2417    2421    2431    2432    2418    2417    2421    2422
    2418    2417    2421    2431    2419    2417    2421    2422
    2419    2417    2421    2431    2420    2417    2421    2422
    2420    2417    2421    2431    2421    2422    2425    2426
    2421    2422    2425    2427    2421    2422    2425    2428
    2421    2431    2428    2425    2421    2431    2428    2429
    2421    2431    2428    2430    2422    2421    2431    2428
    2422    2421    2431    2432    2422    2425    2428    2429
    2422    2425    2428    2430    2422    2425    2428    2431
    2423    2422    2421    2431    2423    2422    2425    2426
    2423    2422    2425    2427    2423    2422    2425    2428
    2424    2422    2421    2431    2424    2422    2425    2426
    2424    2422    2425    2427    2424    2422    2425    2428
    2425    2422    2421    2431    2425    2428    2431    2432
    2426    2425    2428    2429    2426    2425    2428    2430
    2426    2425    2428    2431    2427    2425    2428    2429
    2427    2425    2428    2430    2427    2425    2428    2431
    2429    2428    2431    2432    2430    2428    2431    2432
    2433    2437    2438    2439    2433    2437    2438    2440
    2433    2437    2438    2441    2433    2437    2447    2444
    2433    2437    2447    2448    2434    2433    2437    2438
    2434    2433    2437    2447    2435    2433    2437    2438
    2435    2433    2437    2447    2436    2433    2437    2438
    2436    2433    2437    2447    2437    2438    2441    2442
    2437    2438    2441    2443    2437    2438    2441    2444
    2437    2447    2444    2441    2437    2447    2444    2445
    2437    2447    2444    2446    2438    2437    2447    2444
    2438    2437    2447    2448    2438    2441    2444    2445
    2438    2441    2444    2446    2438    2441    2444    2447
    2439    2438    2437    2447    2439    2438    2441    2442
    2439    2438    2441    2443    2439    2438    2441    2444
    2440    2438    2437    2447    2440    2438    2441    2442
    2440    2438    2441    2443    2440    2438    2441    2444
    2441    2438    2437    2447    2441    2444    2447    2448
    2442    2441    2444    2445    2442    2441    2444    2446
    2442    2441    2444    2447    2443    2441    2444    2445
    2443    2441    2444    2446    2443    2441    2444    2447
    2445    2444    2447    2448    2446    2444    2447    2448
    2449    2453    2454    2455    2449    2453    2454    2456
    2449    2453    2454    2457    2449    2453    2463    2460
    2449    2453    2463    2464    2450    2449    2453    2454
    2450    2449    2453    2463    2451    2449    2453    2454
    2451    2449    2453    2463    2452    2449    2453    2454
    2452    2449    2453    2463    2453    2454    2457    2458
    2453    2454    2457    2459    2453    2454    2457    2460
    2453    2463    2460    2457    2453    2463    2460    2461
    2453    2463    2460    2462    2454    2453    2463    2460
    2454    2453    2463    2464    2454    2457    2460    2461
    2454    2457    2460    2462    2454    2457    2460    2463
    2455    2454    2453    2463    2455    2454    2457    2458
    2455    2454    2457    2459    2455    2454    2457    2460
    2456    2454    2453    2463    2456    2454    2457    2458
    2456    2454    2457    2459    2456    2454    2457    2460
    2457    2454    2453    2463    2457    2460    2463    2464
    2458    2457    2460    2461    2458    2457    2460    2462
    2458    2457    2460    2463    2459    2457    2460    2461
    2459    2457    2460    2462    2459    2457    2460    2463
    2461    2460    2463    2464    2462    2460    2463    2464
    2465    2469    2470    2471    2465    2469    2470    2472
    2465    2469    2470    2473    2465    2469    2479    2476
    2465    2469    2479    2480    2466    2465    2469    2470
    2466    2465    2469    2479    2467    2465    2469    2470
    2467    2465    2469    2479    2468    2465    2469    2470
    2468    2465    2469    2479    2469    2470    2473    2474
    2469    2470    2473    2475    2469    2470    2473    2476
    2469    2479    2476    2473    2469    2479    2476    2477
    2469    2479    2476    2478    2470    2469    2479    2476
    2470    2469    2479    2480    2470    2473    2476    2477
    2470    2473    2476    2478    2470    2473    2476    2479
    2471    2470    2469    2479    2471    2470    2473    2474
    2471    2470    2473    2475    2471    2470    2473    2476
    2472    2470    2469    2479    2472    2470    2473    2474
    2472    2470    2473    2475    2472    2470    2473    2476
    2473    2470    2469    2479    2473    2476    2479    2480
    2474    2473    2476    2477    2474    2473    2476    2478
    2474    2473    2476    2479    2475    2473    2476    2477
    2475    2473    2476    2478    2475    2473    2476    2479
    2477    2476    2479    2480    2478    2476    2479    2480
    2481    2485    2486    2487    2481    2485    2486    2488
    2481    2485    2486    2489    2481    2485    2495    2492
    2481    2485    2495    2496    2482    2481    2485    2486
    2482    2481    2485    2495    2483    2481    2485    2486
    2483    2481    2485    2495    2484    2481    2485    2486
    2484    2481    2485    2495    2485    2486    2489    2490
    2485    2486    2489    2491    2485    2486    2489    2492
    2485    2495    2492    2489    2485    2495    2492    2493
    2485    2495    2492    2494    2486    2485    2495    2492
    2486    2485    2495    2496    2486    2489    2492    2493
    2486    2489    2492    2494    2486    2489    2492    2495
    2487    2486    2485    2495    2487    2486    2489    2490
    2487    2486    2489    2491    2487    2486    2489    2492
    2488    2486    2485    2495    2488    2486    2489    2490
    2488    2486    2489    2491    2488    2486    2489    2492
    2489    2486    2485    2495    2489    2492    2495    2496
    2490    2489    2492    2493    2490    2489    2492    2494
    2490    2489    2492    2495    2491    2489    2492    2493
    2491    2489    2492    2494    2491    2489    2492    2495
    2493    2492    2495    2496    2494    2492    2495    2496
    2497    2501    2502    2503    2497    2501    2502    2504
    2497    2501    2502    2505    2497    2501    2511    2508
    2497    2501    2511    2512    2498    2497    2501    2502
    2498    2497    2501    2511    2499    2497    2501    2502
    2499    2497    2501    2511    2500    2497    2501    2502
    2500    2497    2501    2511    2501    2502    2505    2506
    2501    2502    2505    2507    2501    2502    2505    2508
    2501    2511    2508    2505    2501    2511    2508    2509
    2501    2511    2508    2510    2502    2501    2511    2508
    2502    2501    2511    2512    2502    2505    2508    2509
    2502    2505    2508    2510    2502    2505    2508    2511
    2503    2502    2501    2511    2503    2502    2505    2506
    2503    2502    2505    2507    2503    2502    2505    2508
    2504    2502    2501    2511    2504    2502    2505    2506
    2504    2502    2505    2507    2504    2502    2505    2508
    2505    2502    2501    2511    2505    2508    2511    2512
    2506    2505    2508    2509    2506    2505    2508    2510
    2506    2505    2508    2511    2507    2505    2508    2509
    2507    2505    2508    2510    2507    2505    2508    2511
    2509    2508    2511    2512    2510    2508    2511    2512
    2513    2517    2518    2519    2513    2517    2518    2520
    2513    2517    2518    2521    2513    2517    2527    2524
    2513    2517    2527    2528    2514    2513    2517    2518
    2514    2513    2517    2527    2515    2513    2517    2518
    2515    2513    2517    2527    2516    2513    2517    2518
    2516    2513    2517    2527    2517    2518    2521    2522
    2517    2518    2521    2523    2517    2518    2521    2524
    2517    2527    2524    2521    2517    2527    2524    2525
    2517    2527    2524    2526    2518    2517    2527    2524
    2518    2517    2527    2528    2518    2521    2524    2525
    2518    2521    2524    2526    2518    2521    2524    2527
    2519    2518    2517    2527    2519    2518    2521    2522
    2519    2518    2521    2523    2519    2518    2521    2524
    2520    2518    2517    2527    2520    2518    2521    2522
    2520    2518    2521    2523    2520    2518    2521    2524
    2521    2518    2517    2527    2521    2524    2527    2528
    2522    2521    2524    2525    2522    2521    2524    2526
    2522    2521    2524    2527    2523    2521    2524    2525
    2523    2521    2524    2526    2523    2521    2524    2527
    2525    2524    2527    2528    2526    2524    2527    2528
    2529    2533    2534    2535    2529    2533    2534    2536
    2529    2533    2534    2537    2529    2533    2543    2540
    2529    2533    2543    2544    2530    2529    2533    2534
    2530    2529    2533    2543    2531    2529    2533    2534
    2531    2529    2533    2543    2532    2529    2533    2534
    2532    2529    2533    2543    2533    2534    2537    2538
    2533    2534    2537    2539    2533    2534    2537    2540
    2533    2543    2540    2537    2533    2543    2540    2541
    2533    2543    2540    2542    2534    2533    2543    2540
    2534    2533    2543    2544    2534    2537    2540    2541
    2534    2537    2540    2542    2534    2537    2540    2543
    2535    2534    2533    2543    2535    2534    2537    2538
    2535    2534    2537    2539    2535    2534    2537    2540
    2536    2534    2533    2543    2536    2534    2537    2538
    2536    2534    2537    2539    2536    2534    2537    2540
    2537    2534    2533    2543    2537    2540    2543    2544
    2538    2537    2540    2541    2538    2537    2540    2542
    2538    2537    2540    2543    2539    2537    2540    2541
    2539    2537    2540    2542    2539    2537    2540    2543
    2541    2540    2543    2544    2542    2540    2543    2544
    2545    2549    2550    2551    2545    2549    2550    2552
    2545    2549    2550    2553    2545    2549    2559    2556
    2545    2549    2559    2560    2546    2545    2549    2550
    2546    2545    2549    2559    2547    2545    2549    2550
    2547    2545    2549    2559    2548    2545    2549    2550
    2548    2545    2549    2559    2549    2550    2553    2554
    2549    2550    2553    2555    2549    2550    2553    2556
    2549    2559    2556    2553    2549    2559    2556    2557
    2549    2559    2556    2558    2550    2549    2559    2556
    2550    2549    2559    2560    2550    2553    2556    2557
    2550    2553    2556    2558    2550    2553    2556    2559
    2551    2550    2549    2559    2551    2550    2553    2554
    2551    2550    2553    2555    2551    2550    2553    2556
    2552    2550    2549    2559    2552    2550    2553    2554
    2552    2550    2553    2555    2552    2550    2553    2556
    2553    2550    2549    2559    2553    2556    2559    2560
    2554    2553    2556    2557    2554    2553    2556    2558
    2554    2553    2556    2559    2555    2553    2556    2557
    2555    2553    2556    2558    2555    2553    2556    2559
    2557    2556    2559    2560    2558    2556    2559    2560
    2561    2565    2566    2567    2561    2565    2566    2568
    2561    2565    2566    2569    2561    2565    2575    2572
    2561    2565    2575    2576    2562    2561    2565    2566
    2562    2561    2565    2575    2563    2561    2565    2566
    2563    2561    2565    2575    2564    2561    2565    2566
    2564    2561    2565    2575    2565    2566    2569    2570
    2565    2566    2569    2571    2565    2566    2569    2572
    2565    2575    2572    2569    2565    2575    2572    2573
    2565    2575    2572    2574    2566    2565    2575    2572
    2566    2565    2575    2576    2566    2569    2572    2573
    2566    2569    2572    2574    2566    2569    2572    2575
    2567    2566    2565    2575    2567    2566    2569    2570
    2567    2566    2569    2571    2567    2566    2569    2572
    2568    2566    2565    2575    2568    2566    2569    2570
    2568    2566    2569    2571    2568    2566    2569    2572
    2569    2566    2565    2575    2569    2572    2575    2576
    2570    2569    2572    2573    2570    2569    2572    2574
    2570    2569    2572    2575    2571    2569    2572    2573
    2571    2569    2572    2574    2571    2569    2572    2575
    2573    2572    2575    2576    2574    2572    2575    2576
    2577    2581    2582    2583    2577    2581    2582    2584
    2577    2581    2582    2585    2577    2581    2591    2588
    2577    2581    2591    2592    2578    2577    2581    2582
    2578    2577    2581    2591    2579    2577    2581    2582
    2579    2577    2581    2591    2580    2577    2581    2582
    2580    2577    2581    2591    2581    2582    2585    2586
    2581    2582    2585    2587    2581    2582    2585    2588
    2581    2591    2588    2585    2581    2591    2588    2589
    2581    2591    2588    2590    2582    2581    2591    2588
    2582    2581    2591    2592    2582    2585    2588    2589
    2582    2585    2588    2590    2582    2585    2588    2591
    2583    2582    2581    2591    2583    2582    2585    2586
    2583    2582    2585    2587    2583    2582    2585    2588
    2584    2582    2581    2591    2584    2582    2585    2586
    2584    2582    2585    2587    2584    2582    2585    2588
    2585    2582    2581    2591    2585    2588    2591    2592
    2586    2585    2588    2589    2586    2585    2588    2590
    2586    2585    2588    2591    2587    2585    2588    2589
    2587    2585    2588    2590    2587    2585    2588    2591
    2589    2588    2591    2592    2590    2588    2591    2592
    2593    2597    2598    2599    2593    2597    2598    2600
    2593    2597    2598    2601    2593    2597    2607    2604
    2593    2597    2607    2608    2594    2593    2597    2598
    2594    2593    2597    2607    2595    2593    2597    2598
    2595    2593    2597    2607    2596    2593    2597    2598
    2596    2593    2597    2607    2597    2598    2601    2602
    2597    2598    2601    2603    2597    2598    2601    2604
    2597    2607    2604    2601    2597    2607    2604    2605
    2597    2607    2604    2606    2598    2597    2607    2604
    2598    2597    2607    2608    2598    2601    2604    2605
    2598    2601    2604    2606    2598    2601    2604    2607
    2599    2598    2597    2607    2599    2598    2601    2602
    2599    2598    2601    2603    2599    2598    2601    2604
    2600    2598    2597    2607    2600    2598    2601    2602
    2600    2598    2601    2603    2600    2598    2601    2604
    2601    2598    2597    2607    2601    2604    2607    2608
    2602    2601    2604    2605    2602    2601    2604    2606
    2602    2601    2604    2607    2603    2601    2604    2605
    2603    2601    2604    2606    2603    2601    2604    2607
    2605    2604    2607    2608    2606    2604    2607    2608
    2609    2613    2614    2615    2609    2613    2614    2616
    2609    2613    2614    2617    2609    2613    2623    2620
    2609    2613    2623    2624    2610    2609    2613    2614
    2610    2609    2613    2623    2611    2609    2613    2614
    2611    2609    2613    2623    2612    2609    2613    2614
    2612    2609    2613    2623    2613    2614    2617    2618
    2613    2614    2617    2619    2613    2614    2617    2620
    2613    2623    2620    2617    2613    2623    2620    2621
    2613    2623    2620    2622    2614    2613    2623    2620
    2614    2613    2623    2624    2614    2617    2620    2621
    2614    2617    2620    2622    2614    2617    2620    2623
    2615    2614    2613    2623    2615    2614    2617    2618
    2615    2614    2617    2619    2615    2614    2617    2620
    2616    2614    2613    2623    2616    2614    2617    2618
    2616    2614    2617    2619    2616    2614    2617    2620
    2617    2614    2613    2623    2617    2620    2623    2624
    2618    2617    2620    2621    2618    2617    2620    2622
    2618    2617    2620    2623    2619    2617    2620    2621
    2619    2617    2620    2622    2619    2617    2620    2623
    2621    2620    2623    2624    2622    2620    2623    2624
    2625    2629    2630    2631    2625    2629    2630    2632
    2625    2629    2630    2633    2625    2629    2639    2636
    2625    2629    2639    2640    2626    2625    2629    2630
    2626    2625    2629    2639    2627    2625    2629    2630
    2627    2625    2629    2639    2628    2625    2629    2630
    2628    2625    2629    2639    2629    2630    2633    2634
    2629    2630    2633    2635    2629    2630    2633    2636
    2629    2639    2636    2633    2629    2639    2636    2637
    2629    2639    2636    2638    2630    2629    2639    2636
    2630    2629    2639    2640    2630    2633    2636    2637
    2630    2633    2636    2638    2630    2633    2636    2639
    2631    2630    2629    2639    2631    2630    2633    2634
    2631    2630    2633    2635    2631    2630    2633    2636
    2632    2630    2629    2639    2632    2630    2633    2634
    2632    2630    2633    2635    2632    2630    2633    2636
    2633    2630    2629    2639    2633    2636    2639    2640
    2634    2633    2636    2637    2634    2633    2636    2638
    2634    2633    2636    2639    2635    2633    2636    2637
    2635    2633    2636    2638    2635    2633    2636    2639
    2637    2636    2639    2640    2638    2636    2639    2640
    2641    2645    2646    2647    2641    2645    2646    2648
    2641    2645    2646    2649    2641    2645    2655    2652
    2641    2645    2655    2656    2642    2641    2645    2646
    2642    2641    2645    2655    2643    2641    2645    2646
    2643    2641    2645    2655    2644    2641    2645    2646
    2644    2641    2645    2655    2645    2646    2649    2650
    2645    2646    2649    2651    2645    2646    2649    2652
    2645    2655    2652    2649    2645    2655    2652    2653
    2645    2655    2652    2654    2646    2645    2655    2652
    2646    2645    2655    2656    2646    2649    2652    2653
    2646    2649    2652    2654    2646    2649    2652    2655
    2647    2646    2645    2655    2647    2646    2649    2650
    2647    2646    2649    2651    2647    2646    2649    2652
    2648    2646    2645    2655    2648    2646    2649    2650
    2648    2646    2649    2651    2648    2646    2649    2652
    2649    2646    2645    2655    2649    2652    2655    2656
    2650    2649    2652    2653    2650    2649    2652    2654
    2650    2649    2652    2655    2651    2649    2652    2653
    2651    2649    2652    2654    2651    2649    2652    2655
    2653    2652    2655    2656    2654    2652    2655    2656
    2657    2661    2662    2663    2657    2661    2662    2664
    2657    2661    2662    2665    2657    2661    2671    2668
    2657    2661    2671    2672    2658    2657    2661    2662
    2658    2657    2661    2671    2659    2657    2661    2662
    2659    2657    2661    2671    2660    2657    2661    2662
    2660    2657    2661    2671    2661    2662    2665    2666
    2661    2662    2665    2667    2661    2662    2665    2668
    2661    2671    2668    2665    2661    2671    2668    2669
    2661    2671    2668    2670    2662    2661    2671    2668
    2662    2661    2671    2672    2662    2665    2668    2669
    2662    2665    2668    2670    2662    2665    2668    2671
    2663    2662    2661    2671    2663    2662    2665    2666
    2663    2662    2665    2667    2663    2662    2665    2668
    2664    2662    2661    2671    2664    2662    2665    2666
    2664    2662    2665    2667    2664    2662    2665    2668
    2665    2662    2661    2671    2665    2668    2671    2672
    2666    2665    2668    2669    2666    2665    2668    2670
    2666    2665    2668    2671    2667    2665    2668    2669
    2667    2665    2668    2670    2667    2665    2668    2671
    2669    2668    2671    2672    2670    2668    2671    2672
    2673    2677    2678    2679    2673    2677    2678    2680
    2673    2677    2678    2681    2673    2677    2687    2684
    2673    2677    2687    2688    2674    2673    2677    2678
    2674    2673    2677    2687    2675    2673    2677    2678
    2675    2673    2677    2687    2676    2673    2677    2678
    2676    2673    2677    2687    2677    2678    2681    2682
    2677    2678    2681    2683    2677    2678    2681    2684
    2677    2687    2684    2681    2677    2687    2684    2685
    2677    2687    2684    2686    2678    2677    2687    2684
    2678    2677    2687    2688    2678    2681    2684    2685
    2678    2681    2684    2686    2678    2681    2684    2687
    2679    2678    2677    2687    2679    2678    2681    2682
    2679    2678    2681    2683    2679    2678    2681    2684
    2680    2678    2677    2687    2680    2678    2681    2682
    2680    2678    2681    2683    2680    2678    2681    2684
    2681    2678    2677    2687    2681    2684    2687    2688
    2682    2681    2684    2685    2682    2681    2684    2686
    2682    2681    2684    2687    2683    2681    2684    2685
    2683    2681    2684    2686    2683    2681    2684    2687
    2685    2684    2687    2688    2686    2684    2687    2688
    2689    2693    2694    2695    2689    2693    2694    2696
    2689    2693    2694    2697    2689    2693    2703    2700
    2689    2693    2703    2704    2690    2689    2693    2694
    2690    2689    2693    2703    2691    2689    2693    2694
    2691    2689    2693    2703    2692    2689    2693    2694
    2692    2689    2693    2703    2693    2694    2697    2698
    2693    2694    2697    2699    2693    2694    2697    2700
    2693    2703    2700    2697    2693    2703    2700    2701
    2693    2703    2700    2702    2694    2693    2703    2700
    2694    2693    2703    2704    2694    2697    2700    2701
    2694    2697    2700    2702    2694    2697    2700    2703
    2695    2694    2693    2703    2695    2694    2697    2698
    2695    2694    2697    2699    2695    2694    2697    2700
    2696    2694    2693    2703    2696    2694    2697    2698
    2696    2694    2697    2699    2696    2694    2697    2700
    2697    2694    2693    2703    2697    2700    2703    2704
    2698    2697    2700    2701    2698    2697    2700    2702
    2698    2697    2700    2703    2699    2697    2700    2701
    2699    2697    2700    2702    2699    2697    2700    2703
    2701    2700    2703    2704    2702    2700    2703    2704
    2705    2709    2710    2711    2705    2709    2710    2712
    2705    2709    2710    2713    2705    2709    2719    2716
    2705    2709    2719    2720    2706    2705    2709    2710
    2706    2705    2709    2719    2707    2705    2709    2710
    2707    2705    2709    2719    2708    2705    2709    2710
    2708    2705    2709    2719    2709    2710    2713    2714
    2709    2710    2713    2715    2709    2710    2713    2716
    2709    2719    2716    2713    2709    2719    2716    2717
    2709    2719    2716    2718    2710    2709    2719    2716
    2710    2709    2719    2720    2710    2713    2716    2717
    2710    2713    2716    2718    2710    2713    2716    2719
    2711    2710    2709    2719    2711    2710    2713    2714
    2711    2710    2713    2715    2711    2710    2713    2716
    2712    2710    2709    2719    2712    2710    2713    2714
    2712    2710    2713    2715    2712    2710    2713    2716
    2713    2710    2709    2719    2713    2716    2719    2720
    2714    2713    2716    2717    2714    2713    2716    2718
    2714    2713    2716    2719    2715    2713    2716    2717
    2715    2713    2716    2718    2715    2713    2716    2719
    2717    2716    2719    2720    2718    2716    2719    2720
    2721    2725    2726    2727    2721    2725    2726    2728
    2721    2725    2726    2729    2721    2725    2735    2732
    2721    2725    2735    2736    2722    2721    2725    2726
    2722    2721    2725    2735    2723    2721    2725    2726
    2723    2721    2725    2735    2724    2721    2725    2726
    2724    2721    2725    2735    2725    2726    2729    2730
    2725    2726    2729    2731    2725    2726    2729    2732
    2725    2735    2732    2729    2725    2735    2732    2733
    2725    2735    2732    2734    2726    2725    2735    2732
    2726    2725    2735    2736    2726    2729    2732    2733
    2726    2729    2732    2734    2726    2729    2732    2735
    2727    2726    2725    2735    2727    2726    2729    2730
    2727    2726    2729    2731    2727    2726    2729    2732
    2728    2726    2725    2735    2728    2726    2729    2730
    2728    2726    2729    2731    2728    2726    2729    2732
    2729    2726    2725    2735    2729    2732    2735    2736
    2730    2729    2732    2733    2730    2729    2732    2734
    2730    2729    2732    2735    2731    2729    2732    2733
    2731    2729    2732    2734    2731    2729    2732    2735
    2733    2732    2735    2736    2734    2732    2735    2736
    2737    2741    2742    2743    2737    2741    2742    2744
    2737    2741    2742    2745    2737    2741    2751    2748
    2737    2741    2751    2752    2738    2737    2741    2742
    2738    2737    2741    2751    2739    2737    2741    2742
    2739    2737    2741    2751    2740    2737    2741    2742
    2740    2737    2741    2751    2741    2742    2745    2746
    2741    2742    2745    2747    2741    2742    2745    2748
    2741    2751    2748    2745    2741    2751    2748    2749
    2741    2751    2748    2750    2742    2741    2751    2748
    2742    2741    2751    2752    2742    2745    2748    2749
    2742    2745    2748    2750    2742    2745    2748    2751
    2743    2742    2741    2751    2743    2742    2745    2746
    2743    2742    2745    2747    2743    2742    2745    2748
    2744    2742    2741    2751    2744    2742    2745    2746
    2744    2742    2745    2747    2744    2742    2745    2748
    2745    2742    2741    2751    2745    2748    2751    2752
    2746    2745    2748    2749    2746    2745    2748    2750
    2746    2745    2748    2751    2747    2745    2748    2749
    2747    2745    2748    2750    2747    2745    2748    2751
    2749    2748    2751    2752    2750    2748    2751    2752
    2753    2757    2758    2759    2753    2757    2758    2760
    2753    2757    2758    2761    2753    2757    2767    2764
    2753    2757    2767    2768    2754    2753    2757    2758
    2754    2753    2757    2767    2755    2753    2757    2758
    2755    2753    2757    2767    2756    2753    2757    2758
    2756    2753    2757    2767    2757    2758    2761    2762
    2757    2758    2761    2763    2757    2758    2761    2764
    2757    2767    2764    2761    2757    2767    2764    2765
    2757    2767    2764    2766    2758    2757    2767    2764
    2758    2757    2767    2768    2758    2761    2764    2765
    2758    2761    2764    2766    2758    2761    2764    2767
    2759    2758    2757    2767    2759    2758    2761    2762
    2759    2758    2761    2763    2759    2758    2761    2764
    2760    2758    2757    2767    2760    2758    2761    2762
    2760    2758    2761    2763    2760    2758    2761    2764
    2761    2758    2757    2767    2761    2764    2767    2768
    2762    2761    2764    2765    2762    2761    2764    2766
    2762    2761    2764    2767    2763    2761    2764    2765
    2763    2761    2764    2766    2763    2761    2764    2767
    2765    2764    2767    2768    2766    2764    2767    2768
    2769    2773    2774    2775    2769    2773    2774    2776
    2769    2773    2774    2777    2769    2773    2783    2780
    2769    2773    2783    2784    2770    2769    2773    2774
    2770    2769    2773    2783    2771    2769    2773    2774
    2771    2769    2773    2783    2772    2769    2773    2774
    2772    2769    2773    2783    2773    2774    2777    2778
    2773    2774    2777    2779    2773    2774    2777    2780
    2773    2783    2780    2777    2773    2783    2780    2781
    2773    2783    2780    2782    2774    2773    2783    2780
    2774    2773    2783    2784    2774    2777    2780    2781
    2774    2777    2780    2782    2774    2777    2780    2783
    2775    2774    2773    2783    2775    2774    2777    2778
    2775    2774    2777    2779    2775    2774    2777    2780
    2776    2774    2773    2783    2776    2774    2777    2778
    2776    2774    2777    2779    2776    2774    2777    2780
    2777    2774    2773    2783    2777    2780    2783    2784
    2778    2777    2780    2781    2778    2777    2780    2782
    2778    2777    2780    2783    2779    2777    2780    2781
    2779    2777    2780    2782    2779    2777    2780    2783
    2781    2780    2783    2784    2782    2780    2783    2784
    2785    2789    2790    2791    2785    2789    2790    2792
    2785    2789    2790    2793    2785    2789    2799    2796
    2785    2789    2799    2800    2786    2785    2789    2790
    2786    2785    2789    2799    2787    2785    2789    2790
    2787    2785    2789    2799    2788    2785    2789    2790
    2788    2785    2789    2799    2789    2790    2793    2794
    2789    2790    2793    2795    2789    2790    2793    2796
    2789    2799    2796    2793    2789    2799    2796    2797
    2789    2799    2796    2798    2790    2789    2799    2796
    2790    2789    2799    2800    2790    2793    2796    2797
    2790    2793    2796    2798    2790    2793    2796    2799
    2791    2790    2789    2799    2791    2790    2793    2794
    2791    2790    2793    2795    2791    2790    2793    2796
    2792    2790    2789    2799    2792    2790    2793    2794
    2792    2790    2793    2795    2792    2790    2793    2796
    2793    2790    2789    2799    2793    2796    2799    2800
    2794    2793    2796    2797    2794    2793    2796    2798
    2794    2793    2796    2799    2795    2793    2796    2797
    2795    2793    2796    2798    2795    2793    2796    2799
    2797    2796    2799    2800    2798    2796    2799    2800
    2801    2805    2806    2807    2801    2805    2806    2808
    2801    2805    2806    2809    2801    2805    2815    2812
    2801    2805    2815    2816    2802    2801    2805    2806
    2802    2801    2805    2815    2803    2801    2805    2806
    2803    2801    2805    2815    2804    2801    2805    2806
    2804    2801    2805    2815    2805    2806    2809    2810
    2805    2806    2809    2811    2805    2806    2809    2812
    2805    2815    2812    2809    2805    2815    2812    2813
    2805    2815    2812    2814    2806    2805    2815    2812
    2806    2805    2815    2816    2806    2809    2812    2813
    2806    2809    2812    2814    2806    2809    2812    2815
    2807    2806    2805    2815    2807    2806    2809    2810
    2807    2806    2809    2811    2807    2806    2809    2812
    2808    2806    2805    2815    2808    2806    2809    2810
    2808    2806    2809    2811    2808    2806    2809    2812
    2809    2806    2805    2815    2809    2812    2815    2816
    2810    2809    2812    2813    2810    2809    2812    2814
    2810    2809    2812    2815    2811    2809    2812    2813
    2811    2809    2812    2814    2811    2809    2812    2815
    2813    2812    2815    2816    2814    2812    2815    2816
    2817    2821    2822    2823    2817    2821    2822    2824
    2817    2821    2822    2825    2817    2821    2831    2828
    2817    2821    2831    2832    2818    2817    2821    2822
    2818    2817    2821    2831    2819    2817    2821    2822
    2819    2817    2821    2831    2820    2817    2821    2822
    2820    2817    2821    2831    2821    2822    2825    2826
    2821    2822    2825    2827    2821    2822    2825    2828
    2821    2831    2828    2825    2821    2831    2828    2829
    2821    2831    2828    2830    2822    2821    2831    2828
    2822    2821    2831    2832    2822    2825    2828    2829
    2822    2825    2828    2830    2822    2825    2828    2831
    2823    2822    2821    2831    2823    2822    2825    2826
    2823    2822    2825    2827    2823    2822    2825    2828
    2824    2822    2821    2831    2824    2822    2825    2826
    2824    2822    2825    2827    2824    2822    2825    2828
    2825    2822    2821    2831    2825    2828    2831    2832
    2826    2825    2828    2829    2826    2825    2828    2830
    2826    2825    2828    2831    2827    2825    2828    2829
    2827    2825    2828    2830    2827    2825    2828    2831
    2829    2828    2831    2832    2830    2828    2831    2832
    2833    2837    2838    2839    2833    2837    2838    2840
    2833    2837    2838    2841    2833    2837    2847    2844
    2833    2837    2847    2848    2834    2833    2837    2838
    2834    2833    2837    2847    2835    2833    2837    2838
    2835    2833    2837    2847    2836    2833    2837    2838
    2836    2833    2837    2847    2837    2838    2841    2842
    2837    2838    2841    2843    2837    2838    2841    2844
    2837    2847    2844    2841    2837    2847    2844    2845
    2837    2847    2844    2846    2838    2837    2847    2844
    2838    2837    2847    2848    2838    2841    2844    2845
    2838    2841    2844    2846    2838    2841    2844    2847
    2839    2838    2837    2847    2839    2838    2841    2842
    2839    2838    2841    2843    2839    2838    2841    2844
    2840    2838    2837    2847    2840    2838    2841    2842
    2840    2838    2841    2843    2840    2838    2841    2844
    2841    2838    2837    2847    2841    2844    2847    2848
    2842    2841    2844    2845    2842    2841    2844    2846
    2842    2841    2844    2847    2843    2841    2844    2845
    2843    2841    2844    2846    2843    2841    2844    2847
    2845    2844    2847    2848    2846    2844    2847    2848
    2849    2853    2854    2855    2849    2853    2854    2856
    2849    2853    2854    2857    2849    2853    2863    2860
    2849    2853    2863    2864    2850    2849    2853    2854
    2850    2849    2853    2863    2851    2849    2853    2854
    2851    2849    2853    2863    2852    2849    2853    2854
    2852    2849    2853    2863    2853    2854    2857    2858
    2853    2854    2857    2859    2853    2854    2857    2860
    2853    2863    2860    2857    2853    2863    2860    2861
    2853    2863    2860    2862    2854    2853    2863    2860
    2854    2853    2863    2864    2854    2857    2860    2861
    2854    2857    2860    2862    2854    2857    2860    2863
    2855    2854    2853    2863    2855    2854    2857    2858
    2855    2854    2857    2859    2855    2854    2857    2860
    2856    2854    2853    2863    2856    2854    2857    2858
    2856    2854    2857    2859    2856    2854    2857    2860
    2857    2854    2853    2863    2857    2860    2863    2864
    2858    2857    2860    2861    2858    2857    2860    2862
    2858    2857    2860    2863    2859    2857    2860    2861
    2859    2857    2860    2862    2859    2857    2860    2863
    2861    2860    2863    2864    2862    2860    2863    2864
    2865    2869    2870    2871    2865    2869    2870    2872
    2865    2869    2870    2873    2865    2869    2879    2876
    2865    2869    2879    2880    2866    2865    2869    2870
    2866    2865    2869    2879    2867    2865    2869    2870
    2867    2865    2869    2879    2868    2865    2869    2870
    2868    2865    2869    2879    2869    2870    2873    2874
    2869    2870    2873    2875    2869    2870    2873    2876
    2869    2879    2876    2873    2869    2879    2876    2877
    2869    2879    2876    2878    2870    2869    2879    2876
    2870    2869    2879    2880    2870    2873    2876    2877
    2870    2873    2876    2878    2870    2873    2876    2879
    2871    2870    2869    2879    2871    2870    2873    2874
    2871    2870    2873    2875    2871    2870    2873    2876
    2872    2870    2869    2879    2872    2870    2873    2874
    2872    2870    2873    2875    2872    2870    2873    2876
    2873    2870    2869    2879    2873    2876    2879    2880
    2874    2873    2876    2877    2874    2873    2876    2878
    2874    2873    2876    2879    2875    2873    2876    2877
    2875    2873    2876    2878    2875    2873    2876    2879
    2877    2876    2879    2880    2878    2876    2879    2880
    2881    2885    2886    2887    2881    2885    2886    2888
    2881    2885    2886    2889    2881    2885    2895    2892
    2881    2885    2895    2896    2882    2881    2885    2886
    2882    2881    2885    2895    2883    2881    2885    2886
    2883    2881    2885    2895    2884    2881    2885    2886
    2884    2881    2885    2895    2885    2886    2889    2890
    2885    2886    2889    2891    2885    2886    2889    2892
    2885    2895    2892    2889    2885    2895    2892    2893
    2885    2895    2892    2894    2886    2885    2895    2892
    2886    2885    2895    2896    2886    2889    2892    2893
    2886    2889    2892    2894    2886    2889    2892    2895
    2887    2886    2885    2895    2887    2886    2889    2890
    2887    2886    2889    2891    2887    2886    2889    2892
    2888    2886    2885    2895    2888    2886    2889    2890
    2888    2886    2889    2891    2888    2886    2889    2892
    2889    2886    2885    2895    2889    2892    2895    2896
    2890    2889    2892    2893    2890    2889    2892    2894
    2890    2889    2892    2895    2891    2889    2892    2893
    2891    2889    2892    2894    2891    2889    2892    2895
    2893    2892    2895    2896    2894    2892    2895    2896
    2897    2901    2902    2903    2897    2901    2902    2904
    2897    2901    2902    2905    2897    2901    2911    2908
    2897    2901    2911    2912    2898    2897    2901    2902
    2898    2897    2901    2911    2899    2897    2901    2902
    2899    2897    2901    2911    2900    2897    2901    2902
    2900    2897    2901    2911    2901    2902    2905    2906
    2901    2902    2905    2907    2901    2902    2905    2908
    2901    2911    2908    2905    2901    2911    2908    2909
    2901    2911    2908    2910    2902    2901    2911    2908
    2902    2901    2911    2912    2902    2905    2908    2909
    2902    2905    2908    2910    2902    2905    2908    2911
    2903    2902    2901    2911    2903    2902    2905    2906
    2903    2902    2905    2907    2903    2902    2905    2908
    2904    2902    2901    2911    2904    2902    2905    2906
    2904    2902    2905    2907    2904    2902    2905    2908
    2905    2902    2901    2911    2905    2908    2911    2912
    2906    2905    2908    2909    2906    2905    2908    2910
    2906    2905    2908    2911    2907    2905    2908    2909
    2907    2905    2908    2910    2907    2905    2908    2911
    2909    2908    2911    2912    2910    2908    2911    2912
    2913    2917    2918    2919    2913    2917    2918    2920
    2913    2917    2918    2921    2913    2917    2927    2924
    2913    2917    2927    2928    2914    2913    2917    2918
    2914    2913    2917    2927    2915    2913    2917    2918
    2915    2913    2917    2927    2916    2913    2917    2918
    2916    2913    2917    2927    2917    2918    2921    2922
    2917    2918    2921    2923    2917    2918    2921    2924
    2917    2927    2924    2921    2917    2927    2924    2925
    2917    2927    2924    2926    2918    2917    2927    2924
    2918    2917    2927    2928    2918    2921    2924    2925
    2918    2921    2924    2926    2918    2921    2924    2927
    2919    2918    2917    2927    2919    2918    2921    2922
    2919    2918    2921    2923    2919    2918    2921    2924
    2920    2918    2917    2927    2920    2918    2921    2922
    2920    2918    2921    2923    2920    2918    2921    2924
    2921    2918    2917    2927    2921    2924    2927    2928
    2922    2921    2924    2925    2922    2921    2924    2926
    2922    2921    2924    2927    2923    2921    2924    2925
    2923    2921    2924    2926    2923    2921    2924    2927
    2925    2924    2927    2928    2926    2924    2927    2928
    2929    2933    2934    2935    2929    2933    2934    2936
    2929    2933    2934    2937    2929    2933    2943    2940
    2929    2933    2943    2944    2930    2929    2933    2934
    2930    2929    2933    2943    2931    2929    2933    2934
    2931    2929    2933    2943    2932    2929    2933    2934
    2932    2929    2933    2943    2933    2934    2937    2938
    2933    2934    2937    2939    2933    2934    2937    2940
    2933    2943    2940    2937    2933    2943    2940    2941
    2933    2943    2940    2942    2934    2933    2943    2940
    2934    2933    2943    2944    2934    2937    2940    2941
    2934    2937    2940    2942    2934    2937    2940    2943
    2935    2934    2933    2943    2935    2934    2937    2938
    2935    2934    2937    2939    2935    2934    2937    2940
    2936    2934    2933    2943    2936    2934    2937    2938
    2936    2934    2937    2939    2936    2934    2937    2940
    2937    2934    2933    2943    2937    2940    2943    2944
    2938    2937    2940    2941    2938    2937    2940    2942
    2938    2937    2940    2943    2939    2937    2940    2941
    2939    2937    2940    2942    2939    2937    2940    2943
    2941    2940    2943    2944    2942    2940    2943    2944
    2945    2949    2950    2951    2945    2949    2950    2952
    2945    2949    2950    2953    2945    2949    2959    2956
    2945    2949    2959    2960    2946    2945    2949    2950
    2946    2945    2949    2959    2947    2945    2949    2950
    2947    2945    2949    2959    2948    2945    2949    2950
    2948    2945    2949    2959    2949    2950    2953    2954
    2949    2950    2953    2955    2949    2950    2953    2956
    2949    2959    2956    2953    2949    2959    2956    2957
    2949    2959    2956    2958    2950    2949    2959    2956
    2950    2949    2959    2960    2950    2953    2956    2957
    2950    2953    2956    2958    2950    2953    2956    2959
    2951    2950    2949    2959    2951    2950    2953    2954
    2951    2950    2953    2955    2951    2950    2953    2956
    2952    2950    2949    2959    2952    2950    2953    2954
    2952    2950    2953    2955    2952    2950    2953    2956
    2953    2950    2949    2959    2953    2956    2959    2960
    2954    2953    2956    2957    2954    2953    2956    2958
    2954    2953    2956    2959    2955    2953    2956    2957
    2955    2953    2956    2958    2955    2953    2956    2959
    2957    2956    2959    2960    2958    2956    2959    2960
    2961    2965    2966    2967    2961    2965    2966    2968
    2961    2965    2966    2969    2961    2965    2975    2972
    2961    2965    2975    2976    2962    2961    2965    2966
    2962    2961    2965    2975    2963    2961    2965    2966
    2963    2961    2965    2975    2964    2961    2965    2966
    2964    2961    2965    2975    2965    2966    2969    2970
    2965    2966    2969    2971    2965    2966    2969    2972
    2965    2975    2972    2969    2965    2975    2972    2973
    2965    2975    2972    2974    2966    2965    2975    2972
    2966    2965    2975    2976    2966    2969    2972    2973
    2966    2969    2972    2974    2966    2969    2972    2975
    2967    2966    2965    2975    2967    2966    2969    2970
    2967    2966    2969    2971    2967    2966    2969    2972
    2968    2966    2965    2975    2968    2966    2969    2970
    2968    2966    2969    2971    2968    2966    2969    2972
    2969    2966    2965    2975    2969    2972    2975    2976
    2970    2969    2972    2973    2970    2969    2972    2974
    2970    2969    2972    2975    2971    2969    2972    2973
    2971    2969    2972    2974    2971    2969    2972    2975
    2973    2972    2975    2976    2974    2972    2975    2976
    2977    2981    2982    2983    2977    2981    2982    2984
    2977    2981    2982    2985    2977    2981    2991    2988
    2977    2981    2991    2992    2978    2977    2981    2982
    2978    2977    2981    2991    2979    2977    2981    2982
    2979    2977    2981    2991    2980    2977    2981    2982
    2980    2977    2981    2991    2981    2982    2985    2986
    2981    2982    2985    2987    2981    2982    2985    2988
    2981    2991    2988    2985    2981    2991    2988    2989
    2981    2991    2988    2990    2982    2981    2991    2988
    2982    2981    2991    2992    2982    2985    2988    2989
    2982    2985    2988    2990    2982    2985    2988    2991
    2983    2982    2981    2991    2983    2982    2985    2986
    2983    2982    2985    2987    2983    2982    2985    2988
    2984    2982    2981    2991    2984    2982    2985    2986
    2984    2982    2985    2987    2984    2982    2985    2988
    2985    2982    2981    2991    2985    2988    2991    2992
    2986    2985    2988    2989    2986    2985    2988    2990
    2986    2985    2988    2991    2987    2985    2988    2989
    2987    2985    2988    2990    2987    2985    2988    2991
    2989    2988    2991    2992    2990    2988    2991    2992
    2993    2997    2998    2999    2993    2997    2998    3000
    2993    2997    2998    3001    2993    2997    3007    3004
    2993    2997    3007    3008    2994    2993    2997    2998
    2994    2993    2997    3007    2995    2993    2997    2998
    2995    2993    2997    3007    2996    2993    2997    2998
    2996    2993    2997    3007    2997    2998    3001    3002
    2997    2998    3001    3003    2997    2998    3001    3004
    2997    3007    3004    3001    2997    3007    3004    3005
    2997    3007    3004    3006    2998    2997    3007    3004
    2998    2997    3007    3008    2998    3001    3004    3005
    2998    3001    3004    3006    2998    3001    3004    3007
    2999    2998    2997    3007    2999    2998    3001    3002
    2999    2998    3001    3003    2999    2998    3001    3004
    3000    2998    2997    3007    3000    2998    3001    3002
    3000    2998    3001    3003    3000    2998    3001    3004
    3001    2998    2997    3007    3001    3004    3007    3008
    3002    3001    3004    3005    3002    3001    3004    3006
    3002    3001    3004    3007    3003    3001    3004    3005
    3003    3001    3004    3006    3003    3001    3004    3007
    3005    3004    3007    3008    3006    3004    3007    3008
    3009    3013    3014    3015    3009    3013    3014    3016
    3009    3013    3014    3017    3009    3013    3023    3020
    3009    3013    3023    3024    3010    3009    3013    3014
    3010    3009    3013    3023    3011    3009    3013    3014
    3011    3009    3013    3023    3012    3009    3013    3014
    3012    3009    3013    3023    3013    3014    3017    3018
    3013    3014    3017    3019    3013    3014    3017    3020
    3013    3023    3020    3017    3013    3023    3020    3021
    3013    3023    3020    3022    3014    3013    3023    3020
    3014    3013    3023    3024    3014    3017    3020    3021
    3014    3017    3020    3022    3014    3017    3020    3023
    3015    3014    3013    3023    3015    3014    3017    3018
    3015    3014    3017    3019    3015    3014    3017    3020
    3016    3014    3013    3023    3016    3014    3017    3018
    3016    3014    3017    3019    3016    3014    3017    3020
    3017    3014    3013    3023    3017    3020    3023    3024
    3018    3017    3020    3021    3018    3017    3020    3022
    3018    3017    3020    3023    3019    3017    3020    3021
    3019    3017    3020    3022    3019    3017    3020    3023
    3021    3020    3023    3024    3022    3020    3023    3024
    3025    3029    3030    3031    3025    3029    3030    3032
    3025    3029    3030    3033    3025    3029    3039    3036
    3025    3029    3039    3040    3026    3025    3029    3030
    3026    3025    3029    3039    3027    3025    3029    3030
    3027    3025    3029    3039    3028    3025    3029    3030
    3028    3025    3029    3039    3029    3030    3033    3034
    3029    3030    3033    3035    3029    3030    3033    3036
    3029    3039    3036    3033    3029    3039    3036    3037
    3029    3039    3036    3038    3030    3029    3039    3036
    3030    3029    3039    3040    3030    3033    3036    3037
    3030    3033    3036    3038    3030    3033    3036    3039
    3031    3030    3029    3039    3031    3030    3033    3034
    3031    3030    3033    3035    3031    3030    3033    3036
    3032    3030    3029    3039    3032    3030    3033    3034
    3032    3030    3033    3035    3032    3030    3033    3036
    3033    3030    3029    3039    3033    3036    3039    3040
    3034    3033    3036    3037    3034    3033    3036    3038
    3034    3033    3036    3039    3035    3033    3036    3037
    3035    3033    3036    3038    3035    3033    3036    3039
    3037    3036    3039    3040    3038    3036    3039    3040
    3041    3045    3046    3047    3041    3045    3046    3048
    3041    3045    3046    3049    3041    3045    3055    3052
    3041    3045    3055    3056    3042    3041    3045    3046
    3042    3041    3045    3055    3043    3041    3045    3046
    3043    3041    3045    3055    3044    3041    3045    3046
    3044    3041    3045    3055    3045    3046    3049    3050
    3045    3046    3049    3051    3045    3046    3049    3052
    3045    3055    3052    3049    3045    3055    3052    3053
    3045    3055    3052    3054    3046    3045    3055    3052
    3046    3045    3055    3056    3046    3049    3052    3053
    3046    3049    3052    3054    3046    3049    3052    3055
    3047    3046    3045    3055    3047    3046    3049    3050
    3047    3046    3049    3051    3047    3046    3049    3052
    3048    3046    3045    3055    3048    3046    3049    3050
    3048    3046    3049    3051    3048    3046    3049    3052
    3049    3046    3045    3055    3049    3052    3055    3056
    3050    3049    3052    3053    3050    3049    3052    3054
    3050    3049    3052    3055    3051    3049    3052    3053
    3051    3049    3052    3054    3051    3049    3052    3055
    3053    3052    3055    3056    3054    3052    3055    3056
    3057    3061    3062    3063    3057    3061    3062    3064
    3057    3061    3062    3065    3057    3061    3071    3068
    3057    3061    3071    3072    3058    3057    3061    3062
    3058    3057    3061    3071    3059    3057    3061    3062
    3059    3057    3061    3071    3060    3057    3061    3062
    3060    3057    3061    3071    3061    3062    3065    3066
    3061    3062    3065    3067    3061    3062    3065    3068
    3061    3071    3068    3065    3061    3071    3068    3069
    3061    3071    3068    3070    3062    3061    3071    3068
    3062    3061    3071    3072    3062    3065    3068    3069
    3062    3065    3068    3070    3062    3065    3068    3071
    3063    3062    3061    3071    3063    3062    3065    3066
    3063    3062    3065    3067    3063    3062    3065    3068
    3064    3062    3061    3071    3064    3062    3065    3066
    3064    3062    3065    3067    3064    3062    3065    3068
    3065    3062    3061    3071    3065    3068    3071    3072
    3066    3065    3068    3069    3066    3065    3068    3070
    3066    3065    3068    3071    3067    3065    3068    3069
    3067    3065    3068    3070    3067    3065    3068    3071
    3069    3068    3071    3072    3070    3068    3071    3072
    3073    3077    3078    3079    3073    3077    3078    3080
    3073    3077    3078    3081    3073    3077    3087    3084
    3073    3077    3087    3088    3074    3073    3077    3078
    3074    3073    3077    3087    3075    3073    3077    3078
    3075    3073    3077    3087    3076    3073    3077    3078
    3076    3073    3077    3087    3077    3078    3081    3082
    3077    3078    3081    3083    3077    3078    3081    3084
    3077    3087    3084    3081    3077    3087    3084    3085
    3077    3087    3084    3086    3078    3077    3087    3084
    3078    3077    3087    3088    3078    3081    3084    3085
    3078    3081    3084    3086    3078    3081    3084    3087
    3079    3078    3077    3087    3079    3078    3081    3082
    3079    3078    3081    3083    3079    3078    3081    3084
    3080    3078    3077    3087    3080    3078    3081    3082
    3080    3078    3081    3083    3080    3078    3081    3084
    3081    3078    3077    3087    3081    3084    3087    3088
    3082    3081    3084    3085    3082    3081    3084    3086
    3082    3081    3084    3087    3083    3081    3084    3085
    3083    3081    3084    3086    3083    3081    3084    3087
    3085    3084    3087    3088    3086    3084    3087    3088
    3089    3093    3094    3095    3089    3093    3094    3096
    3089    3093    3094    3097    3089    3093    3103    3100
    3089    3093    3103    3104    3090    3089    3093    3094
    3090    3089    3093    3103    3091    3089    3093    3094
    3091    3089    3093    3103    3092    3089    3093    3094
    3092    3089    3093    3103    3093    3094    3097    3098
    3093    3094    3097    3099    3093    3094    3097    3100
    3093    3103    3100    3097    3093    3103    3100    3101
    3093    3103    3100    3102    3094    3093    3103    3100
    3094    3093    3103    3104    3094    3097    3100    3101
    3094    3097    3100    3102    3094    3097    3100    3103
    3095    3094    3093    3103    3095    3094    3097    3098
    3095    3094    3097    3099    3095    3094    3097    3100
    3096    3094    3093    3103    3096    3094    3097    3098
    3096    3094    3097    3099    3096    3094    3097    3100
    3097    3094    3093    3103    3097    3100    3103    3104
    3098    3097    3100    3101    3098    3097    3100    3102
    3098    3097    3100    3103    3099    3097    3100    3101
    3099    3097    3100    3102    3099    3097    3100    3103
    3101    3100    3103    3104    3102    3100    3103    3104
    3105    3109    3110    3111    3105    3109    3110    3112
    3105    3109    3110    3113    3105    3109    3119    3116
    3105    3109    3119    3120    3106    3105    3109    3110
    3106    3105    3109    3119    3107    3105    3109    3110
    3107    3105    3109    3119    3108    3105    3109    3110
    3108    3105    3109    3119    3109    3110    3113    3114
    3109    3110    3113    3115    3109    3110    3113    3116
    3109    3119    3116    3113    3109    3119    3116    3117
    3109    3119    3116    3118    3110    3109    3119    3116
    3110    3109    3119    3120    3110    3113    3116    3117
    3110    3113    3116    3118    3110    3113    3116    3119
    3111    3110    3109    3119    3111    3110    3113    3114
    3111    3110    3113    3115    3111    3110    3113    3116
    3112    3110    3109    3119    3112    3110    3113    3114
    3112    3110    3113    3115    3112    3110    3113    3116
    3113    3110    3109    3119    3113    3116    3119    3120
    3114    3113    3116    3117    3114    3113    3116    3118
    3114    3113    3116    3119    3115    3113    3116    3117
    3115    3113    3116    3118    3115    3113    3116    3119
    3117    3116    3119    3120    3118    3116    3119    3120
    3121    3125    3126    3127    3121    3125    3126    3128
    3121    3125    3126    3129    3121    3125    3135    3132
    3121    3125    3135    3136    3122    3121    3125    3126
    3122    3121    3125    3135    3123    3121    3125    3126
    3123    3121    3125    3135    3124    3121    3125    3126
    3124    3121    3125    3135    3125    3126    3129    3130
    3125    3126    3129    3131    3125    3126    3129    3132
    3125    3135    3132    3129    3125    3135    3132    3133
    3125    3135    3132    3134    3126    3125    3135    3132
    3126    3125    3135    3136    3126    3129    3132    3133
    3126    3129    3132    3134    3126    3129    3132    3135
    3127    3126    3125    3135    3127    3126    3129    3130
    3127    3126    3129    3131    3127    3126    3129    3132
    3128    3126    3125    3135    3128    3126    3129    3130
    3128    3126    3129    3131    3128    3126    3129    3132
    3129    3126    3125    3135    3129    3132    3135    3136
    3130    3129    3132    3133    3130    3129    3132    3134
    3130    3129    3132    3135    3131    3129    3132    3133
    3131    3129    3132    3134    3131    3129    3132    3135
    3133    3132    3135    3136    3134    3132    3135    3136
    3137    3141    3142    3143    3137    3141    3142    3144
    3137    3141    3142    3145    3137    3141    3151    3148
    3137    3141    3151    3152    3138    3137    3141    3142
    3138    3137    3141    3151    3139    3137    3141    3142
    3139    3137    3141    3151    3140    3137    3141    3142
    3140    3137    3141    3151    3141    3142    3145    3146
    3141    3142    3145    3147    3141    3142    3145    3148
    3141    3151    3148    3145    3141    3151    3148    3149
    3141    3151    3148    3150    3142    3141    3151    3148
    3142    3141    3151    3152    3142    3145    3148    3149
    3142    3145    3148    3150    3142    3145    3148    3151
    3143    3142    3141    3151    3143    3142    3145    3146
    3143    3142    3145    3147    3143    3142    3145    3148
    3144    3142    3141    3151    3144    3142    3145    3146
    3144    3142    3145    3147    3144    3142    3145    3148
    3145    3142    3141    3151    3145    3148    3151    3152
    3146    3145    3148    3149    3146    3145    3148    3150
    3146    3145    3148    3151    3147    3145    3148    3149
    3147    3145    3148    3150    3147    3145    3148    3151
    3149    3148    3151    3152    3150    3148    3151    3152
    3153    3157    3158    3159    3153    3157    3158    3160
    3153    3157    3158    3161    3153    3157    3167    3164
    3153    3157    3167    3168    3154    3153    3157    3158
    3154    3153    3157    3167    3155    3153    3157    3158
    3155    3153    3157    3167    3156    3153    3157    3158
    3156    3153    3157    3167    3157    3158    3161    3162
    3157    3158    3161    3163    3157    3158    3161    3164
    3157    3167    3164    3161    3157    3167    3164    3165
    3157    3167    3164    3166    3158    3157    3167    3164
    3158    3157    3167    3168    3158    3161    3164    3165
    3158    3161    3164    3166    3158    3161    3164    3167
    3159    3158    3157    3167    3159    3158    3161    3162
    3159    3158    3161    3163    3159    3158    3161    3164
    3160    3158    3157    3167    3160    3158    3161    3162
    3160    3158    3161    3163    3160    3158    3161    3164
    3161    3158    3157    3167    3161    3164    3167    3168
    3162    3161    3164    3165    3162    3161    3164    3166
    3162    3161    3164    3167    3163    3161    3164    3165
    3163    3161    3164    3166    3163    3161    3164    3167
    3165    3164    3167    3168    3166    3164    3167    3168
    3169    3173    3174    3175    3169    3173    3174    3176
    3169    3173    3174    3177    3169    3173    3183    3180
    3169    3173    3183    3184    3170    3169    3173    3174
    3170    3169    3173    3183    3171    3169    3173    3174
    3171    3169    3173    3183    3172    3169    3173    3174
    3172    3169    3173    3183    3173    3174    3177    3178
    3173    3174    3177    3179    3173    3174    3177    3180
    3173    3183    3180    3177    3173    3183    3180    3181
    3173    3183    3180    3182    3174    3173    3183    3180
    3174    3173    3183    3184    3174    3177    3180    3181
    3174    3177    3180    3182    3174    3177    3180    3183
    3175    3174    3173    3183    3175    3174    3177    3178
    3175    3174    3177    3179    3175    3174    3177    3180
    3176    3174    3173    3183    3176    3174    3177    3178
    3176    3174    3177    3179    3176    3174    3177    3180
    3177    3174    3173    3183    3177    3180    3183    3184
    3178    3177    3180    3181    3178    3177    3180    3182
    3178    3177    3180    3183    3179    3177    3180    3181
    3179    3177    3180    3182    3179    3177    3180    3183
    3181    3180    3183    3184    3182    3180    3183    3184
    3185    3189    3190    3191    3185    3189    3190    3192
    3185    3189    3190    3193    3185    3189    3199    3196
    3185    3189    3199    3200    3186    3185    3189    3190
    3186    3185    3189    3199    3187    3185    3189    3190
    3187    3185    3189    3199    3188    3185    3189    3190
    3188    3185    3189    3199    3189    3190    3193    3194
    3189    3190    3193    3195    3189    3190    3193    3196
    3189    3199    3196    3193    3189    3199    3196    3197
    3189    3199    3196    3198    3190    3189    3199    3196
    3190    3189    3199    3200    3190    3193    3196    3197
    3190    3193    3196    3198    3190    3193    3196    3199
    3191    3190    3189    3199    3191    3190    3193    3194
    3191    3190    3193    3195    3191    3190    3193    3196
    3192    3190    3189    3199    3192    3190    3193    3194
    3192    3190    3193    3195    3192    3190    3193    3196
    3193    3190    3189    3199    3193    3196    3199    3200
    3194    3193    3196    3197    3194    3193    3196    3198
    3194    3193    3196    3199    3195    3193    3196    3197
    3195    3193    3196    3198    3195    3193    3196    3199
    3197    3196    3199    3200    3198    3196    3199    3200
    3201    3205    3206    3207    3201    3205    3206    3208
    3201    3205    3206    3209    3201    3205    3215    3212
    3201    3205    3215    3216    3202    3201    3205    3206
    3202    3201    3205    3215    3203    3201    3205    3206
    3203    3201    3205    3215    3204    3201    3205    3206
    3204    3201    3205    3215    3205    3206    3209    3210
    3205    3206    3209    3211    3205    3206    3209    3212
    3205    3215    3212    3209    3205    3215    3212    3213
    3205    3215    3212    3214    3206    3205    3215    3212
    3206    3205    3215    3216    3206    3209    3212    3213
    3206    3209    3212    3214    3206    3209    3212    3215
    3207    3206    3205    3215    3207    3206    3209    3210
    3207    3206    3209    3211    3207    3206    3209    3212
    3208    3206    3205    3215    3208    3206    3209    3210
    3208    3206    3209    3211    3208    3206    3209    3212
    3209    3206    3205    3215    3209    3212    3215    3216
    3210    3209    3212    3213    3210    3209    3212    3214
    3210    3209    3212    3215    3211    3209    3212    3213
    3211    3209    3212    3214    3211    3209    3212    3215
    3213    3212    3215    3216    3214    3212    3215    3216
    3217    3221    3222    3223    3217    3221    3222    3224
    3217    3221    3222    3225    3217    3221    3231    3228
    3217    3221    3231    3232    3218    3217    3221    3222
    3218    3217    3221    3231    3219    3217    3221    3222
    3219    3217    3221    3231    3220    3217    3221    3222
    3220    3217    3221    3231    3221    3222    3225    3226
    3221    3222    3225    3227    3221    3222    3225    3228
    3221    3231    3228    3225    3221    3231    3228    3229
    3221    3231    3228    3230    3222    3221    3231    3228
    3222    3221    3231    3232    3222    3225    3228    3229
    3222    3225    3228    3230    3222    3225    3228    3231
    3223    3222    3221    3231    3223    3222    3225    3226
    3223    3222    3225    3227    3223    3222    3225    3228
    3224    3222    3221    3231    3224    3222    3225    3226
    3224    3222    3225    3227    3224    3222    3225    3228
    3225    3222    3221    3231    3225    3228    3231    3232
    3226    3225    3228    3229    3226    3225    3228    3230
    3226    3225    3228    3231    3227    3225    3228    3229
    3227    3225    3228    3230    3227    3225    3228    3231
    3229    3228    3231    3232    3230    3228    3231    3232
    3233    3237    3238    3239    3233    3237    3238    3240
    3233    3237    3238    3241    3233    3237    3247    3244
    3233    3237    3247    3248    3234    3233    3237    3238
    3234    3233    3237    3247    3235    3233    3237    3238
    3235    3233    3237    3247    3236    3233    3237    3238
    3236    3233    3237    3247    3237    3238    3241    3242
    3237    3238    3241    3243    3237    3238    3241    3244
    3237    3247    3244    3241    3237    3247    3244    3245
    3237    3247    3244    3246    3238    3237    3247    3244
    3238    3237    3247    3248    3238    3241    3244    3245
    3238    3241    3244    3246    3238    3241    3244    3247
    3239    3238    3237    3247    3239    3238    3241    3242
    3239    3238    3241    3243    3239    3238    3241    3244
    3240    3238    3237    3247    3240    3238    3241    3242
    3240    3238    3241    3243    3240    3238    3241    3244
    3241    3238    3237    3247    3241    3244    3247    3248
    3242    3241    3244    3245    3242    3241    3244    3246
    3242    3241    3244    3247    3243    3241    3244    3245
    3243    3241    3244    3246    3243    3241    3244    3247
    3245    3244    3247    3248    3246    3244    3247    3248
    3249    3253    3254    3255    3249    3253    3254    3256
    3249    3253    3254    3257    3249    3253    3263    3260
    3249    3253    3263    3264    3250    3249    3253    3254
    3250    3249    3253    3263    3251    3249    3253    3254
    3251    3249    3253    3263    3252    3249    3253    3254
    3252    3249    3253    3263    3253    3254    3257    3258
    3253    3254    3257    3259    3253    3254    3257    3260
    3253    3263    3260    3257    3253    3263    3260    3261
    3253    3263    3260    3262    3254    3253    3263    3260
    3254    3253    3263    3264    3254    3257    3260    3261
    3254    3257    3260    3262    3254    3257    3260    3263
    3255    3254    3253    3263    3255    3254    3257    3258
    3255    3254    3257    3259    3255    3254    3257    3260
    3256    3254    3253    3263    3256    3254    3257    3258
    3256    3254    3257    3259    3256    3254    3257    3260
    3257    3254    3253    3263    3257    3260    3263    3264
    3258    3257    3260    3261    3258    3257    3260    3262
    3258    3257    3260    3263    3259    3257    3260    3261
    3259    3257    3260    3262    3259    3257    3260    3263
    3261    3260    3263    3264    3262    3260    3263    3264
    3265    3269    3270    3271    3265    3269    3270    3272
    3265    3269    3270    3273    3265    3269    3279    3276
    3265    3269    3279    3280    3266    3265    3269    3270
    3266    3265    3269    3279    3267    3265    3269    3270
    3267    3265    3269    3279    3268    3265    3269    3270
    3268    3265    3269    3279    3269    3270    3273    3274
    3269    3270    3273    3275    3269    3270    3273    3276
    3269    3279    3276    3273    3269    3279    3276    3277
    3269    3279    3276    3278    3270    3269    3279    3276
    3270    3269    3279    3280    3270    3273    3276    3277
    3270    3273    3276    3278    3270    3273    3276    3279
    3271    3270    3269    3279    3271    3270    3273    3274
    3271    3270    3273    3275    3271    3270    3273    3276
    3272    3270    3269    3279    3272    3270    3273    3274
    3272    3270    3273    3275    3272    3270    3273    3276
    3273    3270    3269    3279    3273    3276    3279    3280
    3274    3273    3276    3277    3274    3273    3276    3278
    3274    3273    3276    3279    3275    3273    3276    3277
    3275    3273    3276    3278    3275    3273    3276    3279
    3277    3276    3279    3280    3278    3276    3279    3280
    3281    3285    3286    3287    3281    3285    3286    3288
    3281    3285    3286    3289    3281    3285    3295    3292
    3281    3285    3295    3296    3282    3281    3285    3286
    3282    3281    3285    3295    3283    3281    3285    3286
    3283    3281    3285    3295    3284    3281    3285    3286
    3284    3281    3285    3295    3285    3286    3289    3290
    3285    3286    3289    3291    3285    3286    3289    3292
    3285    3295    3292    3289    3285    3295    3292    3293
    3285    3295    3292    3294    3286    3285    3295    3292
    3286    3285    3295    3296    3286    3289    3292    3293
    3286    3289    3292    3294    3286    3289    3292    3295
    3287    3286    3285    3295    3287    3286    3289    3290
    3287    3286    3289    3291    3287    3286    3289    3292
    3288    3286    3285    3295    3288    3286    3289    3290
    3288    3286    3289    3291    3288    3286    3289    3292
    3289    3286    3285    3295    3289    3292    3295    3296
    3290    3289    3292    3293    3290    3289    3292    3294
    3290    3289    3292    3295    3291    3289    3292    3293
    3291    3289    3292    3294    3291    3289    3292    3295
    3293    3292    3295    3296    3294    3292    3295    3296
    3297    3301    3302    3303    3297    3301    3302    3304
    3297    3301    3302    3305    3297    3301    3311    3308
    3297    3301    3311    3312    3298    3297    3301    3302
    3298    3297    3301    3311    3299    3297    3301    3302
    3299    3297    3301    3311    3300    3297    3301    3302
    3300    3297    3301    3311    3301    3302    3305    3306
    3301    3302    3305    3307    3301    3302    3305    3308
    3301    3311    3308    3305    3301    3311    3308    3309
    3301    3311    3308    3310    3302    3301    3311    3308
    3302    3301    3311    3312    3302    3305    3308    3309
    3302    3305    3308    3310    3302    3305    3308    3311
    3303    3302    3301    3311    3303    3302    3305    3306
    3303    3302    3305    3307    3303    3302    3305    3308
    3304    3302    3301    3311    3304    3302    3305    3306
    3304    3302    3305    3307    3304    3302    3305    3308
    3305    3302    3301    3311    3305    3308    3311    3312
    3306    3305    3308    3309    3306    3305    3308    3310
    3306    3305    3308    3311    3307    3305    3308    3309
    3307    3305    3308    3310    3307    3305    3308    3311
    3309    3308    3311    3312    3310    3308    3311    3312
    3313    3317    3318    3319    3313    3317    3318    3320
    3313    3317    3318    3321    3313    3317    3327    3324
    3313    3317    3327    3328    3314    3313    3317    3318
    3314    3313    3317    3327    3315    3313    3317    3318
    3315    3313    3317    3327    3316    3313    3317    3318
    3316    3313    3317    3327    3317    3318    3321    3322
    3317    3318    3321    3323    3317    3318    3321    3324
    3317    3327    3324    3321    3317    3327    3324    3325
    3317    3327    3324    3326    3318    3317    3327    3324
    3318    3317    3327    3328    3318    3321    3324    3325
    3318    3321    3324    3326    3318    3321    3324    3327
    3319    3318    3317    3327    3319    3318    3321    3322
    3319    3318    3321    3323    3319    3318    3321    3324
    3320    3318    3317    3327    3320    3318    3321    3322
    3320    3318    3321    3323    3320    3318    3321    3324
    3321    3318    3317    3327    3321    3324    3327    3328
    3322    3321    3324    3325    3322    3321    3324    3326
    3322    3321    3324    3327    3323    3321    3324    3325
    3323    3321    3324    3326    3323    3321    3324    3327
    3325    3324    3327    3328    3326    3324    3327    3328
    3329    3333    3334    3335    3329    3333    3334    3336
    3329    3333    3334    3337    3329    3333    3343    3340
    3329    3333    3343    3344    3330    3329    3333    3334
    3330    3329    3333    3343    3331    3329    3333    3334
    3331    3329    3333    3343    3332    3329    3333    3334
    3332    3329    3333    3343    3333    3334    3337    3338
    3333    3334    3337    3339    3333    3334    3337    3340
    3333    3343    3340    3337    3333    3343    3340    3341
    3333    3343    3340    3342    3334    3333    3343    3340
    3334    3333    3343    3344    3334    3337    3340    3341
    3334    3337    3340    3342    3334    3337    3340    3343
    3335    3334    3333    3343    3335    3334    3337    3338
    3335    3334    3337    3339    3335    3334    3337    3340
    3336    3334    3333    3343    3336    3334    3337    3338
    3336    3334    3337    3339    3336    3334    3337    3340
    3337    3334    3333    3343    3337    3340    3343    3344
    3338    3337    3340    3341    3338    3337    3340    3342
    3338    3337    3340    3343    3339    3337    3340    3341
    3339    3337    3340    3342    3339    3337    3340    3343
    3341    3340    3343    3344    3342    3340    3343    3344
    3345    3349    3350    3351    3345    3349    3350    3352
    3345    3349    3350    3353    3345    3349    3359    3356
    3345    3349    3359    3360    3346    3345    3349    3350
    3346    3345    3349    3359    3347    3345    3349    3350
    3347    3345    3349    3359    3348    3345    3349    3350
    3348    3345    3349    3359    3349    3350    3353    3354
    3349    3350    3353    3355    3349    3350    3353    3356
    3349    3359    3356    3353    3349    3359    3356    3357
    3349    3359    3356    3358    3350    3349    3359    3356
    3350    3349    3359    3360    3350    3353    3356    3357
    3350    3353    3356    3358    3350    3353    3356    3359
    3351    3350    3349    3359    3351    3350    3353    3354
    3351    3350    3353    3355    3351    3350    3353    3356
    3352    3350    3349    3359    3352    3350    3353    3354
    3352    3350    3353    3355    3352    3350    3353    3356
    3353    3350    3349    3359    3353    3356    3359    3360
    3354    3353    3356    3357    3354    3353    3356    3358
    3354    3353    3356    3359    3355    3353    3356    3357
    3355    3353    3356    3358    3355    3353    3356    3359
    3357    3356    3359    3360    3358    3356    3359    3360
    3361    3365    3366    3367    3361    3365    3366    3368
    3361    3365    3366    3369    3361    3365    3375    3372
    3361    3365    3375    3376    3362    3361    3365    3366
    3362    3361    3365    3375    3363    3361    3365    3366
    3363    3361    3365    3375    3364    3361    3365    3366
    3364    3361    3365    3375    3365    3366    3369    3370
    3365    3366    3369    3371    3365    3366    3369    3372
    3365    3375    3372    3369    3365    3375    3372    3373
    3365    3375    3372    3374    3366    3365    3375    3372
    3366    3365    3375    3376    3366    3369    3372    3373
    3366    3369    3372    3374    3366    3369    3372    3375
    3367    3366    3365    3375    3367    3366    3369    3370
    3367    3366    3369    3371    3367    3366    3369    3372
    3368    3366    3365    3375    3368    3366    3369    3370
    3368    3366    3369    3371    3368    3366    3369    3372
    3369    3366    3365    3375    3369    3372    3375    3376
    3370    3369    3372    3373    3370    3369    3372    3374
    3370    3369    3372    3375    3371    3369    3372    3373
    3371    3369    3372    3374    3371    3369    3372    3375
    3373    3372    3375    3376    3374    3372    3375    3376
    3377    3381    3382    3383    3377    3381    3382    3384
    3377    3381    3382    3385    3377    3381    3391    3388
    3377    3381    3391    3392    3378    3377    3381    3382
    3378    3377    3381    3391    3379    3377    3381    3382
    3379    3377    3381    3391    3380    3377    3381    3382
    3380    3377    3381    3391    3381    3382    3385    3386
    3381    3382    3385    3387    3381    3382    3385    3388
    3381    3391    3388    3385    3381    3391    3388    3389
    3381    3391    3388    3390    3382    3381    3391    3388
    3382    3381    3391    3392    3382    3385    3388    3389
    3382    3385    3388    3390    3382    3385    3388    3391
    3383    3382    3381    3391    3383    3382    3385    3386
    3383    3382    3385    3387    3383    3382    3385    3388
    3384    3382    3381    3391    3384    3382    3385    3386
    3384    3382    3385    3387    3384    3382    3385    3388
    3385    3382    3381    3391    3385    3388    3391    3392
    3386    3385    3388    3389    3386    3385    3388    3390
    3386    3385    3388    3391    3387    3385    3388    3389
    3387    3385    3388    3390    3387    3385    3388    3391
    3389    3388    3391    3392    3390    3388    3391    3392
    3393    3397    3398    3399    3393    3397    3398    3400
    3393    3397    3398    3401    3393    3397    3407    3404
    3393    3397    3407    3408    3394    3393    3397    3398
    3394    3393    3397    3407    3395    3393    3397    3398
    3395    3393    3397    3407    3396    3393    3397    3398
    3396    3393    3397    3407    3397    3398    3401    3402
    3397    3398    3401    3403    3397    3398    3401    3404
    3397    3407    3404    3401    3397    3407    3404    3405
    3397    3407    3404    3406    3398    3397    3407    3404
    3398    3397    3407    3408    3398    3401    3404    3405
    3398    3401    3404    3406    3398    3401    3404    3407
    3399    3398    3397    3407    3399    3398    3401    3402
    3399    3398    3401    3403    3399    3398    3401    3404
    3400    3398    3397    3407    3400    3398    3401    3402
    3400    3398    3401    3403    3400    3398    3401    3404
    3401    3398    3397    3407    3401    3404    3407    3408
    3402    3401    3404    3405    3402    3401    3404    3406
    3402    3401    3404    3407    3403    3401    3404    3405
    3403    3401    3404    3406    3403    3401    3404    3407
    3405    3404    3407    3408    3406    3404    3407    3408
    3409    3413    3414    3415    3409    3413    3414    3416
    3409    3413    3414    3417    3409    3413    3423    3420
    3409    3413    3423    3424    3410    3409    3413    3414
    3410    3409    3413    3423    3411    3409    3413    3414
    3411    3409    3413    3423    3412    3409    3413    3414
    3412    3409    3413    3423    3413    3414    3417    3418
    3413    3414    3417    3419    3413    3414    3417    3420
    3413    3423    3420    3417    3413    3423    3420    3421
    3413    3423    3420    3422    3414    3413    3423    3420
    3414    3413    3423    3424    3414    3417    3420    3421
    3414    3417    3420    3422    3414    3417    3420    3423
    3415    3414    3413    3423    3415    3414    3417    3418
    3415    3414    3417    3419    3415    3414    3417    3420
    3416    3414    3413    3423    3416    3414    3417    3418
    3416    3414    3417    3419    3416    3414    3417    3420
    3417    3414    3413    3423    3417    3420    3423    3424
    3418    3417    3420    3421    3418    3417    3420    3422
    3418    3417    3420    3423    3419    3417    3420    3421
    3419    3417    3420    3422    3419    3417    3420    3423
    3421    3420    3423    3424    3422    3420    3423    3424
    3425    3429    3430    3431    3425    3429    3430    3432
    3425    3429    3430    3433    3425    3429    3439    3436
    3425    3429    3439    3440    3426    3425    3429    3430
    3426    3425    3429    3439    3427    3425    3429    3430
    3427    3425    3429    3439    3428    3425    3429    3430
    3428    3425    3429    3439    3429    3430    3433    3434
    3429    3430    3433    3435    3429    3430    3433    3436
    3429    3439    3436    3433    3429    3439    3436    3437
    3429    3439    3436    3438    3430    3429    3439    3436
    3430    3429    3439    3440    3430    3433    3436    3437
    3430    3433    3436    3438    3430    3433    3436    3439
    3431    3430    3429    3439    3431    3430    3433    3434
    3431    3430    3433    3435    3431    3430    3433    3436
    3432    3430    3429    3439    3432    3430    3433    3434
    3432    3430    3433    3435    3432    3430    3433    3436
    3433    3430    3429    3439    3433    3436    3439    3440
    3434    3433    3436    3437    3434    3433    3436    3438
    3434    3433    3436    3439    3435    3433    3436    3437
    3435    3433    3436    3438    3435    3433    3436    3439
    3437    3436    3439    3440    3438    3436    3439    3440
    3441    3445    3446    3447    3441    3445    3446    3448
    3441    3445    3446    3449    3441    3445    3455    3452
    3441    3445    3455    3456    3442    3441    3445    3446
    3442    3441    3445    3455    3443    3441    3445    3446
    3443    3441    3445    3455    3444    3441    3445    3446
    3444    3441    3445    3455    3445    3446    3449    3450
    3445    3446    3449    3451    3445    3446    3449    3452
    3445    3455    3452    3449    3445    3455    3452    3453
    3445    3455    3452    3454    3446    3445    3455    3452
    3446    3445    3455    3456    3446    3449    3452    3453
    3446    3449    3452    3454    3446    3449    3452    3455
    3447    3446    3445    3455    3447    3446    3449    3450
    3447    3446    3449    3451    3447    3446    3449    3452
    3448    3446    3445    3455    3448    3446    3449    3450
    3448    3446    3449    3451    3448    3446    3449    3452
    3449    3446    3445    3455    3449    3452    3455    3456
    3450    3449    3452    3453    3450    3449    3452    3454
    3450    3449    3452    3455    3451    3449    3452    3453
    3451    3449    3452    3454    3451    3449    3452    3455
    3453    3452    3455    3456    3454    3452    3455    3456
    3457    3461    3462    3463    3457    3461    3462    3464
    3457    3461    3462    3465    3457    3461    3471    3468
    3457    3461    3471    3472    3458    3457    3461    3462
    3458    3457    3461    3471    3459    3457    3461    3462
    3459    3457    3461    3471    3460    3457    3461    3462
    3460    3457    3461    3471    3461    3462    3465    3466
    3461    3462    3465    3467    3461    3462    3465    3468
    3461    3471    3468    3465    3461    3471    3468    3469
    3461    3471    3468    3470    3462    3461    3471    3468
    3462    3461    3471    3472    3462    3465    3468    3469
    3462    3465    3468    3470    3462    3465    3468    3471
    3463    3462    3461    3471    3463    3462    3465    3466
    3463    3462    3465    3467    3463    3462    3465    3468
    3464    3462    3461    3471    3464    3462    3465    3466
    3464    3462    3465    3467    3464    3462    3465    3468
    3465    3462    3461    3471    3465    3468    3471    3472
    3466    3465    3468    3469    3466    3465    3468    3470
    3466    3465    3468    3471    3467    3465    3468    3469
    3467    3465    3468    3470    3467    3465    3468    3471
    3469    3468    3471    3472    3470    3468    3471    3472
    3473    3477    3478    3479    3473    3477    3478    3480
    3473    3477    3478    3481    3473    3477    3487    3484
    3473    3477    3487    3488    3474    3473    3477    3478
    3474    3473    3477    3487    3475    3473    3477    3478
    3475    3473    3477    3487    3476    3473    3477    3478
    3476    3473    3477    3487    3477    3478    3481    3482
    3477    3478    3481    3483    3477    3478    3481    3484
    3477    3487    3484    3481    3477    3487    3484    3485
    3477    3487    3484    3486    3478    3477    3487    3484
    3478    3477    3487    3488    3478    3481    3484    3485
    3478    3481    3484    3486    3478    3481    3484    3487
    3479    3478    3477    3487    3479    3478    3481    3482
    3479    3478    3481    3483    3479    3478    3481    3484
    3480    3478    3477    3487    3480    3478    3481    3482
    3480    3478    3481    3483    3480    3478    3481    3484
    3481    3478    3477    3487    3481    3484    3487    3488
    3482    3481    3484    3485    3482    3481    3484    3486
    3482    3481    3484    3487    3483    3481    3484    3485
    3483    3481    3484    3486    3483    3481    3484    3487
    3485    3484    3487    3488    3486    3484    3487    3488
    3489    3493    3494    3495    3489    3493    3494    3496
    3489    3493    3494    3497    3489    3493    3503    3500
    3489    3493    3503    3504    3490    3489    3493    3494
    3490    3489    3493    3503    3491    3489    3493    3494
    3491    3489    3493    3503    3492    3489    3493    3494
    3492    3489    3493    3503    3493    3494    3497    3498
    3493    3494    3497    3499    3493    3494    3497    3500
    3493    3503    3500    3497    3493    3503    3500    3501
    3493    3503    3500    3502    3494    3493    3503    3500
    3494    3493    3503    3504    3494    3497    3500    3501
    3494    3497    3500    3502    3494    3497    3500    3503
    3495    3494    3493    3503    3495    3494    3497    3498
    3495    3494    3497    3499    3495    3494    3497    3500
    3496    3494    3493    3503    3496    3494    3497    3498
    3496    3494    3497    3499    3496    3494    3497    3500
    3497    3494    3493    3503    3497    3500    3503    3504
    3498    3497    3500    3501    3498    3497    3500    3502
    3498    3497    3500    3503    3499    3497    3500    3501
    3499    3497    3500    3502    3499    3497    3500    3503
    3501    3500    3503    3504    3502    3500    3503    3504
    3505    3509    3510    3511    3505    3509    3510    3512
    3505    3509    3510    3513    3505    3509    3519    3516
    3505    3509    3519    3520    3506    3505    3509    3510
    3506    3505    3509    3519    3507    3505    3509    3510
    3507    3505    3509    3519    3508    3505    3509    3510
    3508    3505    3509    3519    3509    3510    3513    3514
    3509    3510    3513    3515    3509    3510    3513    3516
    3509    3519    3516    3513    3509    3519    3516    3517
    3509    3519    3516    3518    3510    3509    3519    3516
    3510    3509    3519    3520    3510    3513    3516    3517
    3510    3513    3516    3518    3510    3513    3516    3519
    3511    3510    3509    3519    3511    3510    3513    3514
    3511    3510    3513    3515    3511    3510    3513    3516
    3512    3510    3509    3519    3512    3510    3513    3514
    3512    3510    3513    3515    3512    3510    3513    3516
    3513    3510    3509    3519    3513    3516    3519    3520
    3514    3513    3516    3517    3514    3513    3516    3518
    3514    3513    3516    3519    3515    3513    3516    3517
    3515    3513    3516    3518    3515    3513    3516    3519
    3517    3516    3519    3520    3518    3516    3519    3520
    3521    3525    3526    3527    3521    3525    3526    3528
    3521    3525    3526    3529    3521    3525    3535    3532
    3521    3525    3535    3536    3522    3521    3525    3526
    3522    3521    3525    3535    3523    3521    3525    3526
    3523    3521    3525    3535    3524    3521    3525    3526
    3524    3521    3525    3535    3525    3526    3529    3530
    3525    3526    3529    3531    3525    3526    3529    3532
    3525    3535    3532    3529    3525    3535    3532    3533
    3525    3535    3532    3534    3526    3525    3535    3532
    3526    3525    3535    3536    3526    3529    3532    3533
    3526    3529    3532    3534    3526    3529    3532    3535
    3527    3526    3525    3535    3527    3526    3529    3530
    3527    3526    3529    3531    3527    3526    3529    3532
    3528    3526    3525    3535    3528    3526    3529    3530
    3528    3526    3529    3531    3528    3526    3529    3532
    3529    3526    3525    3535    3529    3532    3535    3536
    3530    3529    3532    3533    3530    3529    3532    3534
    3530    3529    3532    3535    3531    3529    3532    3533
    3531    3529    3532    3534    3531    3529    3532    3535
    3533    3532    3535    3536    3534    3532    3535    3536
    3537    3541    3542    3543    3537    3541    3542    3544
    3537    3541    3542    3545    3537    3541    3551    3548
    3537    3541    3551    3552    3538    3537    3541    3542
    3538    3537    3541    3551    3539    3537    3541    3542
    3539    3537    3541    3551    3540    3537    3541    3542
    3540    3537    3541    3551    3541    3542    3545    3546
    3541    3542    3545    3547    3541    3542    3545    3548
    3541    3551    3548    3545    3541    3551    3548    3549
    3541    3551    3548    3550    3542    3541    3551    3548
    3542    3541    3551    3552    3542    3545    3548    3549
    3542    3545    3548    3550    3542    3545    3548    3551
    3543    3542    3541    3551    3543    3542    3545    3546
    3543    3542    3545    3547    3543    3542    3545    3548
    3544    3542    3541    3551    3544    3542    3545    3546
    3544    3542    3545    3547    3544    3542    3545    3548
    3545    3542    3541    3551    3545    3548    3551    3552
    3546    3545    3548    3549    3546    3545    3548    3550
    3546    3545    3548    3551    3547    3545    3548    3549
    3547    3545    3548    3550    3547    3545    3548    3551
    3549    3548    3551    3552    3550    3548    3551    3552
    3553    3557    3558    3559    3553    3557    3558    3560
    3553    3557    3558    3561    3553    3557    3567    3564
    3553    3557    3567    3568    3554    3553    3557    3558
    3554    3553    3557    3567    3555    3553    3557    3558
    3555    3553    3557    3567    3556    3553    3557    3558
    3556    3553    3557    3567    3557    3558    3561    3562
    3557    3558    3561    3563    3557    3558    3561    3564
    3557    3567    3564    3561    3557    3567    3564    3565
    3557    3567    3564    3566    3558    3557    3567    3564
    3558    3557    3567    3568    3558    3561    3564    3565
    3558    3561    3564    3566    3558    3561    3564    3567
    3559    3558    3557    3567    3559    3558    3561    3562
    3559    3558    3561    3563    3559    3558    3561    3564
    3560    3558    3557    3567    3560    3558    3561    3562
    3560    3558    3561    3563    3560    3558    3561    3564
    3561    3558    3557    3567    3561    3564    3567    3568
    3562    3561    3564    3565    3562    3561    3564    3566
    3562    3561    3564    3567    3563    3561    3564    3565
    3563    3561    3564    3566    3563    3561    3564    3567
    3565    3564    3567    3568    3566    3564    3567    3568
    3569    3573    3574    3575    3569    3573    3574    3576
    3569    3573    3574    3577    3569    3573    3583    3580
    3569    3573    3583    3584    3570    3569    3573    3574
    3570    3569    3573    3583    3571    3569    3573    3574
    3571    3569    3573    3583    3572    3569    3573    3574
    3572    3569    3573    3583    3573    3574    3577    3578
    3573    3574    3577    3579    3573    3574    3577    3580
    3573    3583    3580    3577    3573    3583    3580    3581
    3573    3583    3580    3582    3574    3573    3583    3580
    3574    3573    3583    3584    3574    3577    3580    3581
    3574    3577    3580    3582    3574    3577    3580    3583
    3575    3574    3573    3583    3575    3574    3577    3578
    3575    3574    3577    3579    3575    3574    3577    3580
    3576    3574    3573    3583    3576    3574    3577    3578
    3576    3574    3577    3579    3576    3574    3577    3580
    3577    3574    3573    3583    3577    3580    3583    3584
    3578    3577    3580    3581    3578    3577    3580    3582
    3578    3577    3580    3583    3579    3577    3580    3581
    3579    3577    3580    3582    3579    3577    3580    3583
    3581    3580    3583    3584    3582    3580    3583    3584
    3585    3589    3590    3591    3585    3589    3590    3592
    3585    3589    3590    3593    3585    3589    3599    3596
    3585    3589    3599    3600    3586    3585    3589    3590
    3586    3585    3589    3599    3587    3585    3589    3590
    3587    3585    3589    3599    3588    3585    3589    3590
    3588    3585    3589    3599    3589    3590    3593    3594
    3589    3590    3593    3595    3589    3590    3593    3596
    3589    3599    3596    3593    3589    3599    3596    3597
    3589    3599    3596    3598    3590    3589    3599    3596
    3590    3589    3599    3600    3590    3593    3596    3597
    3590    3593    3596    3598    3590    3593    3596    3599
    3591    3590    3589    3599    3591    3590    3593    3594
    3591    3590    3593    3595    3591    3590    3593    3596
    3592    3590    3589    3599    3592    3590    3593    3594
    3592    3590    3593    3595    3592    3590    3593    3596
    3593    3590    3589    3599    3593    3596    3599    3600
    3594    3593    3596    3597    3594    3593    3596    3598
    3594    3593    3596    3599    3595    3593    3596    3597
    3595    3593    3596    3598    3595    3593    3596    3599
    3597    3596    3599    3600    3598    3596    3599    3600
    3601    3605    3606    3607    3601    3605    3606    3608
    3601    3605    3606    3609    3601    3605    3615    3612
    3601    3605    3615    3616    3602    3601    3605    3606
    3602    3601    3605    3615    3603    3601    3605    3606
    3603    3601    3605    3615    3604    3601    3605    3606
    3604    3601    3605    3615    3605    3606    3609    3610
    3605    3606    3609    3611    3605    3606    3609    3612
    3605    3615    3612    3609    3605    3615    3612    3613
    3605    3615    3612    3614    3606    3605    3615    3612
    3606    3605    3615    3616    3606    3609    3612    3613
    3606    3609    3612    3614    3606    3609    3612    3615
    3607    3606    3605    3615    3607    3606    3609    3610
    3607    3606    3609    3611    3607    3606    3609    3612
    3608    3606    3605    3615    3608    3606    3609    3610
    3608    3606    3609    3611    3608    3606    3609    3612
    3609    3606    3605    3615    3609    3612    3615    3616
    3610    3609    3612    3613    3610    3609    3612    3614
    3610    3609    3612    3615    3611    3609    3612    3613
    3611    3609    3612    3614    3611    3609    3612    3615
    3613    3612    3615    3616    3614    3612    3615    3616
    3617    3621    3622    3623    3617    3621    3622    3624
    3617    3621    3622    3625    3617    3621    3631    3628
    3617    3621    3631    3632    3618    3617    3621    3622
    3618    3617    3621    3631    3619    3617    3621    3622
    3619    3617    3621    3631    3620    3617    3621    3622
    3620    3617    3621    3631    3621    3622    3625    3626
    3621    3622    3625    3627    3621    3622    3625    3628
    3621    3631    3628    3625    3621    3631    3628    3629
    3621    3631    3628    3630    3622    3621    3631    3628
    3622    3621    3631    3632    3622    3625    3628    3629
    3622    3625    3628    3630    3622    3625    3628    3631
    3623    3622    3621    3631    3623    3622    3625    3626
    3623    3622    3625    3627    3623    3622    3625    3628
    3624    3622    3621    3631    3624    3622    3625    3626
    3624    3622    3625    3627    3624    3622    3625    3628
    3625    3622    3621    3631    3625    3628    3631    3632
    3626    3625    3628    3629    3626    3625    3628    3630
    3626    3625    3628    3631    3627    3625    3628    3629
    3627    3625    3628    3630    3627    3625    3628    3631
    3629    3628    3631    3632    3630    3628    3631    3632
    3633    3637    3638    3639    3633    3637    3638    3640
    3633    3637    3638    3641    3633    3637    3647    3644
    3633    3637    3647    3648    3634    3633    3637    3638
    3634    3633    3637    3647    3635    3633    3637    3638
    3635    3633    3637    3647    3636    3633    3637    3638
    3636    3633    3637    3647    3637    3638    3641    3642
    3637    3638    3641    3643    3637    3638    3641    3644
    3637    3647    3644    3641    3637    3647    3644    3645
    3637    3647    3644    3646    3638    3637    3647    3644
    3638    3637    3647    3648    3638    3641    3644    3645
    3638    3641    3644    3646    3638    3641    3644    3647
    3639    3638    3637    3647    3639    3638    3641    3642
    3639    3638    3641    3643    3639    3638    3641    3644
    3640    3638    3637    3647    3640    3638    3641    3642
    3640    3638    3641    3643    3640    3638    3641    3644
    3641    3638    3637    3647    3641    3644    3647    3648
    3642    3641    3644    3645    3642    3641    3644    3646
    3642    3641    3644    3647    3643    3641    3644    3645
    3643    3641    3644    3646    3643    3641    3644    3647
    3645    3644    3647    3648    3646    3644    3647    3648
    3649    3653    3654    3655    3649    3653    3654    3656
    3649    3653    3654    3657    3649    3653    3663    3660
    3649    3653    3663    3664    3650    3649    3653    3654
    3650    3649    3653    3663    3651    3649    3653    3654
    3651    3649    3653    3663    3652    3649    3653    3654
    3652    3649    3653    3663    3653    3654    3657    3658
    3653    3654    3657    3659    3653    3654    3657    3660
    3653    3663    3660    3657    3653    3663    3660    3661
    3653    3663    3660    3662    3654    3653    3663    3660
    3654    3653    3663    3664    3654    3657    3660    3661
    3654    3657    3660    3662    3654    3657    3660    3663
    3655    3654    3653    3663    3655    3654    3657    3658
    3655    3654    3657    3659    3655    3654    3657    3660
    3656    3654    3653    3663    3656    3654    3657    3658
    3656    3654    3657    3659    3656    3654    3657    3660
    3657    3654    3653    3663    3657    3660    3663    3664
    3658    3657    3660    3661    3658    3657    3660    3662
    3658    3657    3660    3663    3659    3657    3660    3661
    3659    3657    3660    3662    3659    3657    3660    3663
    3661    3660    3663    3664    3662    3660    3663    3664
    3665    3669    3670    3671    3665    3669    3670    3672
    3665    3669    3670    3673    3665    3669    3679    3676
    3665    3669    3679    3680    3666    3665    3669    3670
    3666    3665    3669    3679    3667    3665    3669    3670
    3667    3665    3669    3679    3668    3665    3669    3670
    3668    3665    3669    3679    3669    3670    3673    3674
    3669    3670    3673    3675    3669    3670    3673    3676
    3669    3679    3676    3673    3669    3679    3676    3677
    3669    3679    3676    3678    3670    3669    3679    3676
    3670    3669    3679    3680    3670    3673    3676    3677
    3670    3673    3676    3678    3670    3673    3676    3679
    3671    3670    3669    3679    3671    3670    3673    3674
    3671    3670    3673    3675    3671    3670    3673    3676
    3672    3670    3669    3679    3672    3670    3673    3674
    3672    3670    3673    3675    3672    3670    3673    3676
    3673    3670    3669    3679    3673    3676    3679    3680
    3674    3673    3676    3677    3674    3673    3676    3678
    3674    3673    3676    3679    3675    3673    3676    3677
    3675    3673    3676    3678    3675    3673    3676    3679
    3677    3676    3679    3680    3678    3676    3679    3680
    3681    3685    3686    3687    3681    3685    3686    3688
    3681    3685    3686    3689    3681    3685    3695    3692
    3681    3685    3695    3696    3682    3681    3685    3686
    3682    3681    3685    3695    3683    3681    3685    3686
    3683    3681    3685    3695    3684    3681    3685    3686
    3684    3681    3685    3695    3685    3686    3689    3690
    3685    3686    3689    3691    3685    3686    3689    3692
    3685    3695    3692    3689    3685    3695    3692    3693
    3685    3695    3692    3694    3686    3685    3695    3692
    3686    3685    3695    3696    3686    3689    3692    3693
    3686    3689    3692    3694    3686    3689    3692    3695
    3687    3686    3685    3695    3687    3686    3689    3690
    3687    3686    3689    3691    3687    3686    3689    3692
    3688    3686    3685    3695    3688    3686    3689    3690
    3688    3686    3689    3691    3688    3686    3689    3692
    3689    3686    3685    3695    3689    3692    3695    3696
    3690    3689    3692    3693    3690    3689    3692    3694
    3690    3689    3692    3695    3691    3689    3692    3693
    3691    3689    3692    3694    3691    3689    3692    3695
    3693    3692    3695    3696    3694    3692    3695    3696
    3697    3701    3702    3703    3697    3701    3702    3704
    3697    3701    3702    3705    3697    3701    3711    3708
    3697    3701    3711    3712    3698    3697    3701    3702
    3698    3697    3701    3711    3699    3697    3701    3702
    3699    3697    3701    3711    3700    3697    3701    3702
    3700    3697    3701    3711    3701    3702    3705    3706
    3701    3702    3705    3707    3701    3702    3705    3708
    3701    3711    3708    3705    3701    3711    3708    3709
    3701    3711    3708    3710    3702    3701    3711    3708
    3702    3701    3711    3712    3702    3705    3708    3709
    3702    3705    3708    3710    3702    3705    3708    3711
    3703    3702    3701    3711    3703    3702    3705    3706
    3703    3702    3705    3707    3703    3702    3705    3708
    3704    3702    3701    3711    3704    3702    3705    3706
    3704    3702    3705    3707    3704    3702    3705    3708
    3705    3702    3701    3711    3705    3708    3711    3712
    3706    3705    3708    3709    3706    3705    3708    3710
    3706    3705    3708    3711    3707    3705    3708    3709
    3707    3705    3708    3710    3707    3705    3708    3711
    3709    3708    3711    3712    3710    3708    3711    3712
    3713    3717    3718    3719    3713    3717    3718    3720
    3713    3717    3718    3721    3713    3717    3727    3724
    3713    3717    3727    3728    3714    3713    3717    3718
    3714    3713    3717    3727    3715    3713    3717    3718
    3715    3713    3717    3727    3716    3713    3717    3718
    3716    3713    3717    3727    3717    3718    3721    3722
    3717    3718    3721    3723    3717    3718    3721    3724
    3717    3727    3724    3721    3717    3727    3724    3725
    3717    3727    3724    3726    3718    3717    3727    3724
    3718    3717    3727    3728    3718    3721    3724    3725
    3718    3721    3724    3726    3718    3721    3724    3727
    3719    3718    3717    3727    3719    3718    3721    3722
    3719    3718    3721    3723    3719    3718    3721    3724
    3720    3718    3717    3727    3720    3718    3721    3722
    3720    3718    3721    3723    3720    3718    3721    3724
    3721    3718    3717    3727    3721    3724    3727    3728
    3722    3721    3724    3725    3722    3721    3724    3726
    3722    3721    3724    3727    3723    3721    3724    3725
    3723    3721    3724    3726    3723    3721    3724    3727
    3725    3724    3727    3728    3726    3724    3727    3728
    3729    3733    3734    3735    3729    3733    3734    3736
    3729    3733    3734    3737    3729    3733    3743    3740
    3729    3733    3743    3744    3730    3729    3733    3734
    3730    3729    3733    3743    3731    3729    3733    3734
    3731    3729    3733    3743    3732    3729    3733    3734
    3732    3729    3733    3743    3733    3734    3737    3738
    3733    3734    3737    3739    3733    3734    3737    3740
    3733    3743    3740    3737    3733    3743    3740    3741
    3733    3743    3740    3742    3734    3733    3743    3740
    3734    3733    3743    3744    3734    3737    3740    3741
    3734    3737    3740    3742    3734    3737    3740    3743
    3735    3734    3733    3743    3735    3734    3737    3738
    3735    3734    3737    3739    3735    3734    3737    3740
    3736    3734    3733    3743    3736    3734    3737    3738
    3736    3734    3737    3739    3736    3734    3737    3740
    3737    3734    3733    3743    3737    3740    3743    3744
    3738    3737    3740    3741    3738    3737    3740    3742
    3738    3737    3740    3743    3739    3737    3740    3741
    3739    3737    3740    3742    3739    3737    3740    3743
    3741    3740    3743    3744    3742    3740    3743    3744
    3745    3749    3750    3751    3745    3749    3750    3752
    3745    3749    3750    3753    3745    3749    3759    3756
    3745    3749    3759    3760    3746    3745    3749    3750
    3746    3745    3749    3759    3747    3745    3749    3750
    3747    3745    3749    3759    3748    3745    3749    3750
    3748    3745    3749    3759    3749    3750    3753    3754
    3749    3750    3753    3755    3749    3750    3753    3756
    3749    3759    3756    3753    3749    3759    3756    3757
    3749    3759    3756    3758    3750    3749    3759    3756
    3750    3749    3759    3760    3750    3753    3756    3757
    3750    3753    3756    3758    3750    3753    3756    3759
    3751    3750    3749    3759    3751    3750    3753    3754
    3751    3750    3753    3755    3751    3750    3753    3756
    3752    3750    3749    3759    3752    3750    3753    3754
    3752    3750    3753    3755    3752    3750    3753    3756
    3753    3750    3749    3759    3753    3756    3759    3760
    3754    3753    3756    3757    3754    3753    3756    3758
    3754    3753    3756    3759    3755    3753    3756    3757
    3755    3753    3756    3758    3755    3753    3756    3759
    3757    3756    3759    3760    3758    3756    3759    3760
    3761    3765    3766    3767    3761    3765    3766    3768
    3761    3765    3766    3769    3761    3765    3775    3772
    3761    3765    3775    3776    3762    3761    3765    3766
    3762    3761    3765    3775    3763    3761    3765    3766
    3763    3761    3765    3775    3764    3761    3765    3766
    3764    3761    3765    3775    3765    3766    3769    3770
    3765    3766    3769    3771    3765    3766    3769    3772
    3765    3775    3772    3769    3765    3775    3772    3773
    3765    3775    3772    3774    3766    3765    3775    3772
    3766    3765    3775    3776    3766    3769    3772    3773
    3766    3769    3772    3774    3766    3769    3772    3775
    3767    3766    3765    3775    3767    3766    3769    3770
    3767    3766    3769    3771    3767    3766    3769    3772
    3768    3766    3765    3775    3768    3766    3769    3770
    3768    3766    3769    3771    3768    3766    3769    3772
    3769    3766    3765    3775    3769    3772    3775    3776
    3770    3769    3772    3773    3770    3769    3772    3774
    3770    3769    3772    3775    3771    3769    3772    3773
    3771    3769    3772    3774    3771    3769    3772    3775
    3773    3772    3775    3776    3774    3772    3775    3776
    3777    3781    3782    3783    3777    3781    3782    3784
    3777    3781    3782    3785    3777    3781    3791    3788
    3777    3781    3791    3792    3778    3777    3781    3782
    3778    3777    3781    3791    3779    3777    3781    3782
    3779    3777    3781    3791    3780    3777    3781    3782
    3780    3777    3781    3791    3781    3782    3785    3786
    3781    3782    3785    3787    3781    3782    3785    3788
    3781    3791    3788    3785    3781    3791    3788    3789
    3781    3791    3788    3790    3782    3781    3791    3788
    3782    3781    3791    3792    3782    3785    3788    3789
    3782    3785    3788    3790    3782    3785    3788    3791
    3783    3782    3781    3791    3783    3782    3785    3786
    3783    3782    3785    3787    3783    3782    3785    3788
    3784    3782    3781    3791    3784    3782    3785    3786
    3784    3782    3785    3787    3784    3782    3785    3788
    3785    3782    3781    3791    3785    3788    3791    3792
    3786    3785    3788    3789    3786    3785    3788    3790
    3786    3785    3788    3791    3787    3785    3788    3789
    3787    3785    3788    3790    3787    3785    3788    3791
    3789    3788    3791    3792    3790    3788    3791    3792
    3793    3797    3798    3799    3793    3797    3798    3800
    3793    3797    3798    3801    3793    3797    3807    3804
    3793    3797    3807    3808    3794    3793    3797    3798
    3794    3793    3797    3807    3795    3793    3797    3798
    3795    3793    3797    3807    3796    3793    3797    3798
    3796    3793    3797    3807    3797    3798    3801    3802
    3797    3798    3801    3803    3797    3798    3801    3804
    3797    3807    3804    3801    3797    3807    3804    3805
    3797    3807    3804    3806    3798    3797    3807    3804
    3798    3797    3807    3808    3798    3801    3804    3805
    3798    3801    3804    3806    3798    3801    3804    3807
    3799    3798    3797    3807    3799    3798    3801    3802
    3799    3798    3801    3803    3799    3798    3801    3804
    3800    3798    3797    3807    3800    3798    3801    3802
    3800    3798    3801    3803    3800    3798    3801    3804
    3801    3798    3797    3807    3801    3804    3807    3808
    3802    3801    3804    3805    3802    3801    3804    3806
    3802    3801    3804    3807    3803    3801    3804    3805
    3803    3801    3804    3806    3803    3801    3804    3807
    3805    3804    3807    3808    3806    3804    3807    3808
    3809    3813    3814    3815    3809    3813    3814    3816
    3809    3813    3814    3817    3809    3813    3823    3820
    3809    3813    3823    3824    3810    3809    3813    3814
    3810    3809    3813    3823    3811    3809    3813    3814
    3811    3809    3813    3823    3812    3809    3813    3814
    3812    3809    3813    3823    3813    3814    3817    3818
    3813    3814    3817    3819    3813    3814    3817    3820
    3813    3823    3820    3817    3813    3823    3820    3821
    3813    3823    3820    3822    3814    3813    3823    3820
    3814    3813    3823    3824    3814    3817    3820    3821
    3814    3817    3820    3822    3814    3817    3820    3823
    3815    3814    3813    3823    3815    3814    3817    3818
    3815    3814    3817    3819    3815    3814    3817    3820
    3816    3814    3813    3823    3816    3814    3817    3818
    3816    3814    3817    3819    3816    3814    3817    3820
    3817    3814    3813    3823    3817    3820    3823    3824
    3818    3817    3820    3821    3818    3817    3820    3822
    3818    3817    3820    3823    3819    3817    3820    3821
    3819    3817    3820    3822    3819    3817    3820    3823
    3821    3820    3823    3824    3822    3820    3823    3824
    3825    3829    3830    3831    3825    3829    3830    3832
    3825    3829    3830    3833    3825    3829    3839    3836
    3825    3829    3839    3840    3826    3825    3829    3830
    3826    3825    3829    3839    3827    3825    3829    3830
    3827    3825    3829    3839    3828    3825    3829    3830
    3828    3825    3829    3839    3829    3830    3833    3834
    3829    3830    3833    3835    3829    3830    3833    3836
    3829    3839    3836    3833    3829    3839    3836    3837
    3829    3839    3836    3838    3830    3829    3839    3836
    3830    3829    3839    3840    3830    3833    3836    3837
    3830    3833    3836    3838    3830    3833    3836    3839
    3831    3830    3829    3839    3831    3830    3833    3834
    3831    3830    3833    3835    3831    3830    3833    3836
    3832    3830    3829    3839    3832    3830    3833    3834
    3832    3830    3833    3835    3832    3830    3833    3836
    3833    3830    3829    3839    3833    3836    3839    3840
    3834    3833    3836    3837    3834    3833    3836    3838
    3834    3833    3836    3839    3835    3833    3836    3837
    3835    3833    3836    3838    3835    3833    3836    3839
    3837    3836    3839    3840    3838    3836    3839    3840
    3841    3845    3846    3847    3841    3845    3846    3848
    3841    3845    3846    3849    3841    3845    3855    3852
    3841    3845    3855    3856    3842    3841    3845    3846
    3842    3841    3845    3855    3843    3841    3845    3846
    3843    3841    3845    3855    3844    3841    3845    3846
    3844    3841    3845    3855    3845    3846    3849    3850
    3845    3846    3849    3851    3845    3846    3849    3852
    3845    3855    3852    3849    3845    3855    3852    3853
    3845    3855    3852    3854    3846    3845    3855    3852
    3846    3845    3855    3856    3846    3849    3852    3853
    3846    3849    3852    3854    3846    3849    3852    3855
    3847    3846    3845    3855    3847    3846    3849    3850
    3847    3846    3849    3851    3847    3846    3849    3852
    3848    3846    3845    3855    3848    3846    3849    3850
    3848    3846    3849    3851    3848    3846    3849    3852
    3849    3846    3845    3855    3849    3852    3855    3856
    3850    3849    3852    3853    3850    3849    3852    3854
    3850    3849    3852    3855    3851    3849    3852    3853
    3851    3849    3852    3854    3851    3849    3852    3855
    3853    3852    3855    3856    3854    3852    3855    3856
    3857    3861    3862    3863    3857    3861    3862    3864
    3857    3861    3862    3865    3857    3861    3871    3868
    3857    3861    3871    3872    3858    3857    3861    3862
    3858    3857    3861    3871    3859    3857    3861    3862
    3859    3857    3861    3871    3860    3857    3861    3862
    3860    3857    3861    3871    3861    3862    3865    3866
    3861    3862    3865    3867    3861    3862    3865    3868
    3861    3871    3868    3865    3861    3871    3868    3869
    3861    3871    3868    3870    3862    3861    3871    3868
    3862    3861    3871    3872    3862    3865    3868    3869
    3862    3865    3868    3870    3862    3865    3868    3871
    3863    3862    3861    3871    3863    3862    3865    3866
    3863    3862    3865    3867    3863    3862    3865    3868
    3864    3862    3861    3871    3864    3862    3865    3866
    3864    3862    3865    3867    3864    3862    3865    3868
    3865    3862    3861    3871    3865    3868    3871    3872
    3866    3865    3868    3869    3866    3865    3868    3870
    3866    3865    3868    3871    3867    3865    3868    3869
    3867    3865    3868    3870    3867    3865    3868    3871
    3869    3868    3871    3872    3870    3868    3871    3872
    3873    3877    3878    3879    3873    3877    3878    3880
    3873    3877    3878    3881    3873    3877    3887    3884
    3873    3877    3887    3888    3874    3873    3877    3878
    3874    3873    3877    3887    3875    3873    3877    3878
    3875    3873    3877    3887    3876    3873    3877    3878
    3876    3873    3877    3887    3877    3878    3881    3882
    3877    3878    3881    3883    3877    3878    3881    3884
    3877    3887    3884    3881    3877    3887    3884    3885
    3877    3887    3884    3886    3878    3877    3887    3884
    3878    3877    3887    3888    3878    3881    3884    3885
    3878    3881    3884    3886    3878    3881    3884    3887
    3879    3878    3877    3887    3879    3878    3881    3882
    3879    3878    3881    3883    3879    3878    3881    3884
    3880    3878    3877    3887    3880    3878    3881    3882
    3880    3878    3881    3883    3880    3878    3881    3884
    3881    3878    3877    3887    3881    3884    3887    3888
    3882    3881    3884    3885    3882    3881    3884    3886
    3882    3881    3884    3887    3883    3881    3884    3885
    3883    3881    3884    3886    3883    3881    3884    3887
    3885    3884    3887    3888    3886    3884    3887    3888
    3889    3893    3894    3895    3889    3893    3894    3896
    3889    3893    3894    3897    3889    3893    3903    3900
    3889    3893    3903    3904    3890    3889    3893    3894
    3890    3889    3893    3903    3891    3889    3893    3894
    3891    3889    3893    3903    3892    3889    3893    3894
    3892    3889    3893    3903    3893    3894    3897    3898
    3893    3894    3897    3899    3893    3894    3897    3900
    3893    3903    3900    3897    3893    3903    3900    3901
    3893    3903    3900    3902    3894    3893    3903    3900
    3894    3893    3903    3904    3894    3897    3900    3901
    3894    3897    3900    3902    3894    3897    3900    3903
    3895    3894    3893    3903    3895    3894    3897    3898
    3895    3894    3897    3899    3895    3894    3897    3900
    3896    3894    3893    3903    3896    3894    3897    3898
    3896    3894    3897    3899    3896    3894    3897    3900
    3897    3894    3893    3903    3897    3900    3903    3904
    3898    3897    3900    3901    3898    3897    3900    3902
    3898    3897    3900    3903    3899    3897    3900    3901
    3899    3897    3900    3902    3899    3897    3900    3903
    3901    3900    3903    3904    3902    3900    3903    3904
    3905    3909    3910    3911    3905    3909    3910    3912
    3905    3909    3910    3913    3905    3909    3919    3916
    3905    3909    3919    3920    3906    3905    3909    3910
    3906    3905    3909    3919    3907    3905    3909    3910
    3907    3905    3909    3919    3908    3905    3909    3910
    3908    3905    3909    3919    3909    3910    3913    3914
    3909    3910    3913    3915    3909    3910    3913    3916
    3909    3919    3916    3913    3909    3919    3916    3917
    3909    3919    3916    3918    3910    3909    3919    3916
    3910    3909    3919    3920    3910    3913    3916    3917
    3910    3913    3916    3918    3910    3913    3916    3919
    3911    3910    3909    3919    3911    3910    3913    3914
    3911    3910    3913    3915    3911    3910    3913    3916
    3912    3910    3909    3919    3912    3910    3913    3914
    3912    3910    3913    3915    3912    3910    3913    3916
    3913    3910    3909    3919    3913    3916    3919    3920
    3914    3913    3916    3917    3914    3913    3916    3918
    3914    3913    3916    3919    3915    3913    3916    3917
    3915    3913    3916    3918    3915    3913    3916    3919
    3917    3916    3919    3920    3918    3916    3919    3920
    3921    3925    3926    3927    3921    3925    3926    3928
    3921    3925    3926    3929    3921    3925    3935    3932
    3921    3925    3935    3936    3922    3921    3925    3926
    3922    3921    3925    3935    3923    3921    3925    3926
    3923    3921    3925    3935    3924    3921    3925    3926
    3924    3921    3925    3935    3925    3926    3929    3930
    3925    3926    3929    3931    3925    3926    3929    3932
    3925    3935    3932    3929    3925    3935    3932    3933
    3925    3935    3932    3934    3926    3925    3935    3932
    3926    3925    3935    3936    3926    3929    3932    3933
    3926    3929    3932    3934    3926    3929    3932    3935
    3927    3926    3925    3935    3927    3926    3929    3930
    3927    3926    3929    3931    3927    3926    3929    3932
    3928    3926    3925    3935    3928    3926    3929    3930
    3928    3926    3929    3931    3928    3926    3929    3932
    3929    3926    3925    3935    3929    3932    3935    3936
    3930    3929    3932    3933    3930    3929    3932    3934
    3930    3929    3932    3935    3931    3929    3932    3933
    3931    3929    3932    3934    3931    3929    3932    3935
    3933    3932    3935    3936    3934    3932    3935    3936
    3937    3941    3942    3943    3937    3941    3942    3944
    3937    3941    3942    3945    3937    3941    3951    3948
    3937    3941    3951    3952    3938    3937    3941    3942
    3938    3937    3941    3951    3939    3937    3941    3942
    3939    3937    3941    3951    3940    3937    3941    3942
    3940    3937    3941    3951    3941    3942    3945    3946
    3941    3942    3945    3947    3941    3942    3945    3948
    3941    3951    3948    3945    3941    3951    3948    3949
    3941    3951    3948    3950    3942    3941    3951    3948
    3942    3941    3951    3952    3942    3945    3948    3949
    3942    3945    3948    3950    3942    3945    3948    3951
    3943    3942    3941    3951    3943    3942    3945    3946
    3943    3942    3945    3947    3943    3942    3945    3948
    3944    3942    3941    3951    3944    3942    3945    3946
    3944    3942    3945    3947    3944    3942    3945    3948
    3945    3942    3941    3951    3945    3948    3951    3952
    3946    3945    3948    3949    3946    3945    3948    3950
    3946    3945    3948    3951    3947    3945    3948    3949
    3947    3945    3948    3950    3947    3945    3948    3951
    3949    3948    3951    3952    3950    3948    3951    3952
    3953    3957    3958    3959    3953    3957    3958    3960
    3953    3957    3958    3961    3953    3957    3967    3964
    3953    3957    3967    3968    3954    3953    3957    3958
    3954    3953    3957    3967    3955    3953    3957    3958
    3955    3953    3957    3967    3956    3953    3957    3958
    3956    3953    3957    3967    3957    3958    3961    3962
    3957    3958    3961    3963    3957    3958    3961    3964
    3957    3967    3964    3961    3957    3967    3964    3965
    3957    3967    3964    3966    3958    3957    3967    3964
    3958    3957    3967    3968    3958    3961    3964    3965
    3958    3961    3964    3966    3958    3961    3964    3967
    3959    3958    3957    3967    3959    3958    3961    3962
    3959    3958    3961    3963    3959    3958    3961    3964
    3960    3958    3957    3967    3960    3958    3961    3962
    3960    3958    3961    3963    3960    3958    3961    3964
    3961    3958    3957    3967    3961    3964    3967    3968
    3962    3961    3964    3965    3962    3961    3964    3966
    3962    3961    3964    3967    3963    3961    3964    3965
    3963    3961    3964    3966    3963    3961    3964    3967
    3965    3964    3967    3968    3966    3964    3967    3968
    3969    3973    3974    3975    3969    3973    3974    3976
    3969    3973    3974    3977    3969    3973    3983    3980
    3969    3973    3983    3984    3970    3969    3973    3974
    3970    3969    3973    3983    3971    3969    3973    3974
    3971    3969    3973    3983    3972    3969    3973    3974
    3972    3969    3973    3983    3973    3974    3977    3978
    3973    3974    3977    3979    3973    3974    3977    3980
    3973    3983    3980    3977    3973    3983    3980    3981
    3973    3983    3980    3982    3974    3973    3983    3980
    3974    3973    3983    3984    3974    3977    3980    3981
    3974    3977    3980    3982    3974    3977    3980    3983
    3975    3974    3973    3983    3975    3974    3977    3978
    3975    3974    3977    3979    3975    3974    3977    3980
    3976    3974    3973    3983    3976    3974    3977    3978
    3976    3974    3977    3979    3976    3974    3977    3980
    3977    3974    3973    3983    3977    3980    3983    3984
    3978    3977    3980    3981    3978    3977    3980    3982
    3978    3977    3980    3983    3979    3977    3980    3981
    3979    3977    3980    3982    3979    3977    3980    3983
    3981    3980    3983    3984    3982    3980    3983    3984
    3985    3989    3990    3991    3985    3989    3990    3992
    3985    3989    3990    3993    3985    3989    3999    3996
    3985    3989    3999    4000    3986    3985    3989    3990
    3986    3985    3989    3999    3987    3985    3989    3990
    3987    3985    3989    3999    3988    3985    3989    3990
    3988    3985    3989    3999    3989    3990    3993    3994
    3989    3990    3993    3995    3989    3990    3993    3996
    3989    3999    3996    3993    3989    3999    3996    3997
    3989    3999    3996    3998    3990    3989    3999    3996
    3990    3989    3999    4000    3990    3993    3996    3997
    3990    3993    3996    3998    3990    3993    3996    3999
    3991    3990    3989    3999    3991    3990    3993    3994
    3991    3990    3993    3995    3991    3990    3993    3996
    3992    3990    3989    3999    3992    3990    3993    3994
    3992    3990    3993    3995    3992    3990    3993    3996
    3993    3990    3989    3999    3993    3996    3999    4000
    3994    3993    3996    3997    3994    3993    3996    3998
    3994    3993    3996    3999    3995    3993    3996    3997
    3995    3993    3996    3998    3995    3993    3996    3999
    3997    3996    3999    4000    3998    3996    3999    4000
    4001    4005    4006    4007    4001    4005    4006    4008
    4001    4005    4006    4009    4001    4005    4015    4012
    4001    4005    4015    4016    4002    4001    4005    4006
    4002    4001    4005    4015    4003    4001    4005    4006
    4003    4001    4005    4015    4004    4001    4005    4006
    4004    4001    4005    4015    4005    4006    4009    4010
    4005    4006    4009    4011    4005    4006    4009    4012
    4005    4015    4012    4009    4005    4015    4012    4013
    4005    4015    4012    4014    4006    4005    4015    4012
    4006    4005    4015    4016    4006    4009    4012    4013
    4006    4009    4012    4014    4006    4009    4012    4015
    4007    4006    4005    4015    4007    4006    4009    4010
    4007    4006    4009    4011    4007    4006    4009    4012
    4008    4006    4005    4015    4008    4006    4009    4010
    4008    4006    4009    4011    4008    4006    4009    4012
    4009    4006    4005    4015    4009    4012    4015    4016
    4010    4009    4012    4013    4010    4009    4012    4014
    4010    4009    4012    4015    4011    4009    4012    4013
    4011    4009    4012    4014    4011    4009    4012    4015
    4013    4012    4015    4016    4014    4012    4015    4016
    4017    4021    4022    4023    4017    4021    4022    4024
    4017    4021    4022    4025    4017    4021    4031    4028
    4017    4021    4031    4032    4018    4017    4021    4022
    4018    4017    4021    4031    4019    4017    4021    4022
    4019    4017    4021    4031    4020    4017    4021    4022
    4020    4017    4021    4031    4021    4022    4025    4026
    4021    4022    4025    4027    4021    4022    4025    4028
    4021    4031    4028    4025    4021    4031    4028    4029
    4021    4031    4028    4030    4022    4021    4031    4028
    4022    4021    4031    4032    4022    4025    4028    4029
    4022    4025    4028    4030    4022    4025    4028    4031
    4023    4022    4021    4031    4023    4022    4025    4026
    4023    4022    4025    4027    4023    4022    4025    4028
    4024    4022    4021    4031    4024    4022    4025    4026
    4024    4022    4025    4027    4024    4022    4025    4028
    4025    4022    4021    4031    4025    4028    4031    4032
    4026    4025    4028    4029    4026    4025    4028    4030
    4026    4025    4028    4031    4027    4025    4028    4029
    4027    4025    4028    4030    4027    4025    4028    4031
    4029    4028    4031    4032    4030    4028    4031    4032
    4033    4037    4038    4039    4033    4037    4038    4040
    4033    4037    4038    4041    4033    4037    4047    4044
    4033    4037    4047    4048    4034    4033    4037    4038
    4034    4033    4037    4047    4035    4033    4037    4038
    4035    4033    4037    4047    4036    4033    4037    4038
    4036    4033    4037    4047    4037    4038    4041    4042
    4037    4038    4041    4043    4037    4038    4041    4044
    4037    4047    4044    4041    4037    4047    4044    4045
    4037    4047    4044    4046    4038    4037    4047    4044
    4038    4037    4047    4048    4038    4041    4044    4045
    4038    4041    4044    4046    4038    4041    4044    4047
    4039    4038    4037    4047    4039    4038    4041    4042
    4039    4038    4041    4043    4039    4038    4041    4044
    4040    4038    4037    4047    4040    4038    4041    4042
    4040    4038    4041    4043    4040    4038    4041    4044
    4041    4038    4037    4047    4041    4044    4047    4048
    4042    4041    4044    4045    4042    4041    4044    4046
    4042    4041    4044    4047    4043    4041    4044    4045
    4043    4041    4044    4046    4043    4041    4044    4047
    4045    4044    4047    4048    4046    4044    4047    4048
    4049    4053    4054    4055    4049    4053    4054    4056
    4049    4053    4054    4057    4049    4053    4063    4060
    4049    4053    4063    4064    4050    4049    4053    4054
    4050    4049    4053    4063    4051    4049    4053    4054
    4051    4049    4053    4063    4052    4049    4053    4054
    4052    4049    4053    4063    4053    4054    4057    4058
    4053    4054    4057    4059    4053    4054    4057    4060
    4053    4063    4060    4057    4053    4063    4060    4061
    4053    4063    4060    4062    4054    4053    4063    4060
    4054    4053    4063    4064    4054    4057    4060    4061
    4054    4057    4060    4062    4054    4057    4060    4063
    4055    4054    4053    4063    4055    4054    4057    4058
    4055    4054    4057    4059    4055    4054    4057    4060
    4056    4054    4053    4063    4056    4054    4057    4058
    4056    4054    4057    4059    4056    4054    4057    4060
    4057    4054    4053    4063    4057    4060    4063    4064
    4058    4057    4060    4061    4058    4057    4060    4062
    4058    4057    4060    4063    4059    4057    4060    4061
    4059    4057    4060    4062    4059    4057    4060    4063
    4061    4060    4063    4064    4062    4060    4063    4064
    4065    4069    4070    4071    4065    4069    4070    4072
    4065    4069    4070    4073    4065    4069    4079    4076
    4065    4069    4079    4080    4066    4065    4069    4070
    4066    4065    4069    4079    4067    4065    4069    4070
    4067    4065    4069    4079    4068    4065    4069    4070
    4068    4065    4069    4079    4069    4070    4073    4074
    4069    4070    4073    4075    4069    4070    4073    4076
    4069    4079    4076    4073    4069    4079    4076    4077
    4069    4079    4076    4078    4070    4069    4079    4076
    4070    4069    4079    4080    4070    4073    4076    4077
    4070    4073    4076    4078    4070    4073    4076    4079
    4071    4070    4069    4079    4071    4070    4073    4074
    4071    4070    4073    4075    4071    4070    4073    4076
    4072    4070    4069    4079    4072    4070    4073    4074
    4072    4070    4073    4075    4072    4070    4073    4076
    4073    4070    4069    4079    4073    4076    4079    4080
    4074    4073    4076    4077    4074    4073    4076    4078
    4074    4073    4076    4079    4075    4073    4076    4077
    4075    4073    4076    4078    4075    4073    4076    4079
    4077    4076    4079    4080    4078    4076    4079    4080
    4081    4085    4086    4087    4081    4085    4086    4088
    4081    4085    4086    4089    4081    4085    4095    4092
    4081    4085    4095    4096    4082    4081    4085    4086
    4082    4081    4085    4095    4083    4081    4085    4086
    4083    4081    4085    4095    4084    4081    4085    4086
    4084    4081    4085    4095    4085    4086    4089    4090
    4085    4086    4089    4091    4085    4086    4089    4092
    4085    4095    4092    4089    4085    4095    4092    4093
    4085    4095    4092    4094    4086    4085    4095    4092
    4086    4085    4095    4096    4086    4089    4092    4093
    4086    4089    4092    4094    4086    4089    4092    4095
    4087    4086    4085    4095    4087    4086    4089    4090
    4087    4086    4089    4091    4087    4086    4089    4092
    4088    4086    4085    4095    4088    4086    4089    4090
    4088    4086    4089    4091    4088    4086    4089    4092
    4089    4086    4085    4095    4089    4092    4095    4096
    4090    4089    4092    4093    4090    4089    4092    4094
    4090    4089    4092    4095    4091    4089    4092    4093
    4091    4089    4092    4094    4091    4089    4092    4095
    4093    4092    4095    4096    4094    4092    4095    4096
    4097    4101    4102    4103    4097    4101    4102    4104
    4097    4101    4102    4105    4097    4101    4111    4108
    4097    4101    4111    4112    4098    4097    4101    4102
    4098    4097    4101    4111    4099    4097    4101    4102
    4099    4097    4101    4111    4100    4097    4101    4102
    4100    4097    4101    4111    4101    4102    4105    4106
    4101    4102    4105    4107    4101    4102    4105    4108
    4101    4111    4108    4105    4101    4111    4108    4109
    4101    4111    4108    4110    4102    4101    4111    4108
    4102    4101    4111    4112    4102    4105    4108    4109
    4102    4105    4108    4110    4102    4105    4108    4111
    4103    4102    4101    4111    4103    4102    4105    4106
    4103    4102    4105    4107    4103    4102    4105    4108
    4104    4102    4101    4111    4104    4102    4105    4106
    4104    4102    4105    4107    4104    4102    4105    4108
    4105    4102    4101    4111    4105    4108    4111    4112
    4106    4105    4108    4109    4106    4105    4108    4110
    4106    4105    4108    4111    4107    4105    4108    4109
    4107    4105    4108    4110    4107    4105    4108    4111
    4109    4108    4111    4112    4110    4108    4111    4112
    4113    4117    4118    4119    4113    4117    4118    4120
    4113    4117    4118    4121    4113    4117    4127    4124
    4113    4117    4127    4128    4114    4113    4117    4118
    4114    4113    4117    4127    4115    4113    4117    4118
    4115    4113    4117    4127    4116    4113    4117    4118
    4116    4113    4117    4127    4117    4118    4121    4122
    4117    4118    4121    4123    4117    4118    4121    4124
    4117    4127    4124    4121    4117    4127    4124    4125
    4117    4127    4124    4126    4118    4117    4127    4124
    4118    4117    4127    4128    4118    4121    4124    4125
    4118    4121    4124    4126    4118    4121    4124    4127
    4119    4118    4117    4127    4119    4118    4121    4122
    4119    4118    4121    4123    4119    4118    4121    4124
    4120    4118    4117    4127    4120    4118    4121    4122
    4120    4118    4121    4123    4120    4118    4121    4124
    4121    4118    4117    4127    4121    4124    4127    4128
    4122    4121    4124    4125    4122    4121    4124    4126
    4122    4121    4124    4127    4123    4121    4124    4125
    4123    4121    4124    4126    4123    4121    4124    4127
    4125    4124    4127    4128    4126    4124    4127    4128
    4129    4133    4134    4135    4129    4133    4134    4136
    4129    4133    4134    4137    4129    4133    4143    4140
    4129    4133    4143    4144    4130    4129    4133    4134
    4130    4129    4133    4143    4131    4129    4133    4134
    4131    4129    4133    4143    4132    4129    4133    4134
    4132    4129    4133    4143    4133    4134    4137    4138
    4133    4134    4137    4139    4133    4134    4137    4140
    4133    4143    4140    4137    4133    4143    4140    4141
    4133    4143    4140    4142    4134    4133    4143    4140
    4134    4133    4143    4144    4134    4137    4140    4141
    4134    4137    4140    4142    4134    4137    4140    4143
    4135    4134    4133    4143    4135    4134    4137    4138
    4135    4134    4137    4139    4135    4134    4137    4140
    4136    4134    4133    4143    4136    4134    4137    4138
    4136    4134    4137    4139    4136    4134    4137    4140
    4137    4134    4133    4143    4137    4140    4143    4144
    4138    4137    4140    4141    4138    4137    4140    4142
    4138    4137    4140    4143    4139    4137    4140    4141
    4139    4137    4140    4142    4139    4137    4140    4143
    4141    4140    4143    4144    4142    4140    4143    4144
    4145    4149    4150    4151    4145    4149    4150    4152
    4145    4149    4150    4153    4145    4149    4159    4156
    4145    4149    4159    4160    4146    4145    4149    4150
    4146    4145    4149    4159    4147    4145    4149    4150
    4147    4145    4149    4159    4148    4145    4149    4150
    4148    4145    4149    4159    4149    4150    4153    4154
    4149    4150    4153    4155    4149    4150    4153    4156
    4149    4159    4156    4153    4149    4159    4156    4157
    4149    4159    4156    4158    4150    4149    4159    4156
    4150    4149    4159    4160    4150    4153    4156    4157
    4150    4153    4156    4158    4150    4153    4156    4159
    4151    4150    4149    4159    4151    4150    4153    4154
    4151    4150    4153    4155    4151    4150    4153    4156
    4152    4150    4149    4159    4152    4150    4153    4154
    4152    4150    4153    4155    4152    4150    4153    4156
    4153    4150    4149    4159    4153    4156    4159    4160
    4154    4153    4156    4157    4154    4153    4156    4158
    4154    4153    4156    4159    4155    4153    4156    4157
    4155    4153    4156    4158    4155    4153    4156    4159
    4157    4156    4159    4160    4158    4156    4159    4160
    4161    4165    4166    4167    4161    4165    4166    4168
    4161    4165    4166    4169    4161    4165    4175    4172
    4161    4165    4175    4176    4162    4161    4165    4166
    4162    4161    4165    4175    4163    4161    4165    4166
    4163    4161    4165    4175    4164    4161    4165    4166
    4164    4161    4165    4175    4165    4166    4169    4170
    4165    4166    4169    4171    4165    4166    4169    4172
    4165    4175    4172    4169    4165    4175    4172    4173
    4165    4175    4172    4174    4166    4165    4175    4172
    4166    4165    4175    4176    4166    4169    4172    4173
    4166    4169    4172    4174    4166    4169    4172    4175
    4167    4166    4165    4175    4167    4166    4169    4170
    4167    4166    4169    4171    4167    4166    4169    4172
    4168    4166    4165    4175    4168    4166    4169    4170
    4168    4166    4169    4171    4168    4166    4169    4172
    4169    4166    4165    4175    4169    4172    4175    4176
    4170    4169    4172    4173    4170    4169    4172    4174
    4170    4169    4172    4175    4171    4169    4172    4173
    4171    4169    4172    4174    4171    4169    4172    4175
    4173    4172    4175    4176    4174    4172    4175    4176
    4177    4181    4182    4183    4177    4181    4182    4184
    4177    4181    4182    4185    4177    4181    4191    4188
    4177    4181    4191    4192    4178    4177    4181    4182
    4178    4177    4181    4191    4179    4177    4181    4182
    4179    4177    4181    4191    4180    4177    4181    4182
    4180    4177    4181    4191    4181    4182    4185    4186
    4181    4182    4185    4187    4181    4182    4185    4188
    4181    4191    4188    4185    4181    4191    4188    4189
    4181    4191    4188    4190    4182    4181    4191    4188
    4182    4181    4191    4192    4182    4185    4188    4189
    4182    4185    4188    4190    4182    4185    4188    4191
    4183    4182    4181    4191    4183    4182    4185    4186
    4183    4182    4185    4187    4183    4182    4185    4188
    4184    4182    4181    4191    4184    4182    4185    4186
    4184    4182    4185    4187    4184    4182    4185    4188
    4185    4182    4181    4191    4185    4188    4191    4192
    4186    4185    4188    4189    4186    4185    4188    4190
    4186    4185    4188    4191    4187    4185    4188    4189
    4187    4185    4188    4190    4187    4185    4188    4191
    4189    4188    4191    4192    4190    4188    4191    4192
    4193    4197    4198    4199    4193    4197    4198    4200
    4193    4197    4198    4201    4193    4197    4207    4204
    4193    4197    4207    4208    4194    4193    4197    4198
    4194    4193    4197    4207    4195    4193    4197    4198
    4195    4193    4197    4207    4196    4193    4197    4198
    4196    4193    4197    4207    4197    4198    4201    4202
    4197    4198    4201    4203    4197    4198    4201    4204
    4197    4207    4204    4201    4197    4207    4204    4205
    4197    4207    4204    4206    4198    4197    4207    4204
    4198    4197    4207    4208    4198    4201    4204    4205
    4198    4201    4204    4206    4198    4201    4204    4207
    4199    4198    4197    4207    4199    4198    4201    4202
    4199    4198    4201    4203    4199    4198    4201    4204
    4200    4198    4197    4207    4200    4198    4201    4202
    4200    4198    4201    4203    4200    4198    4201    4204
    4201    4198    4197    4207    4201    4204    4207    4208
    4202    4201    4204    4205    4202    4201    4204    4206
    4202    4201    4204    4207    4203    4201    4204    4205
    4203    4201    4204    4206    4203    4201    4204    4207
    4205    4204    4207    4208    4206    4204    4207    4208
    4209    4213    4214    4215    4209    4213    4214    4216
    4209    4213    4214    4217    4209    4213    4223    4220
    4209    4213    4223    4224    4210    4209    4213    4214
    4210    4209    4213    4223    4211    4209    4213    4214
    4211    4209    4213    4223    4212    4209    4213    4214
    4212    4209    4213    4223    4213    4214    4217    4218
    4213    4214    4217    4219    4213    4214    4217    4220
    4213    4223    4220    4217    4213    4223    4220    4221
    4213    4223    4220    4222    4214    4213    4223    4220
    4214    4213    4223    4224    4214    4217    4220    4221
    4214    4217    4220    4222    4214    4217    4220    4223
    4215    4214    4213    4223    4215    4214    4217    4218
    4215    4214    4217    4219    4215    4214    4217    4220
    4216    4214    4213    4223    4216    4214    4217    4218
    4216    4214    4217    4219    4216    4214    4217    4220
    4217    4214    4213    4223    4217    4220    4223    4224
    4218    4217    4220    4221    4218    4217    4220    4222
    4218    4217    4220    4223    4219    4217    4220    4221
    4219    4217    4220    4222    4219    4217    4220    4223
    4221    4220    4223    4224    4222    4220    4223    4224
    4225    4229    4230    4231    4225    4229    4230    4232
    4225    4229    4230    4233    4225    4229    4239    4236
    4225    4229    4239    4240    4226    4225    4229    4230
    4226    4225    4229    4239    4227    4225    4229    4230
    4227    4225    4229    4239    4228    4225    4229    4230
    4228    4225    4229    4239    4229    4230    4233    4234
    4229    4230    4233    4235    4229    4230    4233    4236
    4229    4239    4236    4233    4229    4239    4236    4237
    4229    4239    4236    4238    4230    4229    4239    4236
    4230    4229    4239    4240    4230    4233    4236    4237
    4230    4233    4236    4238    4230    4233    4236    4239
    4231    4230    4229    4239    4231    4230    4233    4234
    4231    4230    4233    4235    4231    4230    4233    4236
    4232    4230    4229    4239    4232    4230    4233    4234
    4232    4230    4233    4235    4232    4230    4233    4236
    4233    4230    4229    4239    4233    4236    4239    4240
    4234    4233    4236    4237    4234    4233    4236    4238
    4234    4233    4236    4239    4235    4233    4236    4237
    4235    4233    4236    4238    4235    4233    4236    4239
    4237    4236    4239    4240    4238    4236    4239    4240
    4241    4245    4246    4247    4241    4245    4246    4248
    4241    4245    4246    4249    4241    4245    4255    4252
    4241    4245    4255    4256    4242    4241    4245    4246
    4242    4241    4245    4255    4243    4241    4245    4246
    4243    4241    4245    4255    4244    4241    4245    4246
    4244    4241    4245    4255    4245    4246    4249    4250
    4245    4246    4249    4251    4245    4246    4249    4252
    4245    4255    4252    4249    4245    4255    4252    4253
    4245    4255    4252    4254    4246    4245    4255    4252
    4246    4245    4255    4256    4246    4249    4252    4253
    4246    4249    4252    4254    4246    4249    4252    4255
    4247    4246    4245    4255    4247    4246    4249    4250
    4247    4246    4249    4251    4247    4246    4249    4252
    4248    4246    4245    4255    4248    4246    4249    4250
    4248    4246    4249    4251    4248    4246    4249    4252
    4249    4246    4245    4255    4249    4252    4255    4256
    4250    4249    4252    4253    4250    4249    4252    4254
    4250    4249    4252    4255    4251    4249    4252    4253
    4251    4249    4252    4254    4251    4249    4252    4255
    4253    4252    4255    4256    4254    4252    4255    4256
    4257    4261    4262    4263    4257    4261    4262    4264
    4257    4261    4262    4265    4257    4261    4271    4268
    4257    4261    4271    4272    4258    4257    4261    4262
    4258    4257    4261    4271    4259    4257    4261    4262
    4259    4257    4261    4271    4260    4257    4261    4262
    4260    4257    4261    4271    4261    4262    4265    4266
    4261    4262    4265    4267    4261    4262    4265    4268
    4261    4271    4268    4265    4261    4271    4268    4269
    4261    4271    4268    4270    4262    4261    4271    4268
    4262    4261    4271    4272    4262    4265    4268    4269
    4262    4265    4268    4270    4262    4265    4268    4271
    4263    4262    4261    4271    4263    4262    4265    4266
    4263    4262    4265    4267    4263    4262    4265    4268
    4264    4262    4261    4271    4264    4262    4265    4266
    4264    4262    4265    4267    4264    4262    4265    4268
    4265    4262    4261    4271    4265    4268    4271    4272
    4266    4265    4268    4269    4266    4265    4268    4270
    4266    4265    4268    4271    4267    4265    4268    4269
    4267    4265    4268    4270    4267    4265    4268    4271
    4269    4268    4271    4272    4270    4268    4271    4272
    4273    4277    4278    4279    4273    4277    4278    4280
    4273    4277    4278    4281    4273    4277    4287    4284
    4273    4277    4287    4288    4274    4273    4277    4278
    4274    4273    4277    4287    4275    4273    4277    4278
    4275    4273    4277    4287    4276    4273    4277    4278
    4276    4273    4277    4287    4277    4278    4281    4282
    4277    4278    4281    4283    4277    4278    4281    4284
    4277    4287    4284    4281    4277    4287    4284    4285
    4277    4287    4284    4286    4278    4277    4287    4284
    4278    4277    4287    4288    4278    4281    4284    4285
    4278    4281    4284    4286    4278    4281    4284    4287
    4279    4278    4277    4287    4279    4278    4281    4282
    4279    4278    4281    4283    4279    4278    4281    4284
    4280    4278    4277    4287    4280    4278    4281    4282
    4280    4278    4281    4283    4280    4278    4281    4284
    4281    4278    4277    4287    4281    4284    4287    4288
    4282    4281    4284    4285    4282    4281    4284    4286
    4282    4281    4284    4287    4283    4281    4284    4285
    4283    4281    4284    4286    4283    4281    4284    4287
    4285    4284    4287    4288    4286    4284    4287    4288
    4289    4293    4294    4295    4289    4293    4294    4296
    4289    4293    4294    4297    4289    4293    4303    4300
    4289    4293    4303    4304    4290    4289    4293    4294
    4290    4289    4293    4303    4291    4289    4293    4294
    4291    4289    4293    4303    4292    4289    4293    4294
    4292    4289    4293    4303    4293    4294    4297    4298
    4293    4294    4297    4299    4293    4294    4297    4300
    4293    4303    4300    4297    4293    4303    4300    4301
    4293    4303    4300    4302    4294    4293    4303    4300
    4294    4293    4303    4304    4294    4297    4300    4301
    4294    4297    4300    4302    4294    4297    4300    4303
    4295    4294    4293    4303    4295    4294    4297    4298
    4295    4294    4297    4299    4295    4294    4297    4300
    4296    4294    4293    4303    4296    4294    4297    4298
    4296    4294    4297    4299    4296    4294    4297    4300
    4297    4294    4293    4303    4297    4300    4303    4304
    4298    4297    4300    4301    4298    4297    4300    4302
    4298    4297    4300    4303    4299    4297    4300    4301
    4299    4297    4300    4302    4299    4297    4300    4303
    4301    4300    4303    4304    4302    4300    4303    4304
    4305    4309    4310    4311    4305    4309    4310    4312
    4305    4309    4310    4313    4305    4309    4319    4316
    4305    4309    4319    4320    4306    4305    4309    4310
    4306    4305    4309    4319    4307    4305    4309    4310
    4307    4305    4309    4319    4308    4305    4309    4310
    4308    4305    4309    4319    4309    4310    4313    4314
    4309    4310    4313    4315    4309    4310    4313    4316
    4309    4319    4316    4313    4309    4319    4316    4317
    4309    4319    4316    4318    4310    4309    4319    4316
    4310    4309    4319    4320    4310    4313    4316    4317
    4310    4313    4316    4318    4310    4313    4316    4319
    4311    4310    4309    4319    4311    4310    4313    4314
    4311    4310    4313    4315    4311    4310    4313    4316
    4312    4310    4309    4319    4312    4310    4313    4314
    4312    4310    4313    4315    4312    4310    4313    4316
    4313    4310    4309    4319    4313    4316    4319    4320
    4314    4313    4316    4317    4314    4313    4316    4318
    4314    4313    4316    4319    4315    4313    4316    4317
    4315    4313    4316    4318    4315    4313    4316    4319
    4317    4316    4319    4320    4318    4316    4319    4320
    4321    4325    4326    4327    4321    4325    4326    4328
    4321    4325    4326    4329    4321    4325    4335    4332
    4321    4325    4335    4336    4322    4321    4325    4326
    4322    4321    4325    4335    4323    4321    4325    4326
    4323    4321    4325    4335    4324    4321    4325    4326
    4324    4321    4325    4335    4325    4326    4329    4330
    4325    4326    4329    4331    4325    4326    4329    4332
    4325    4335    4332    4329    4325    4335    4332    4333
    4325    4335    4332    4334    4326    4325    4335    4332
    4326    4325    4335    4336    4326    4329    4332    4333
    4326    4329    4332    4334    4326    4329    4332    4335
    4327    4326    4325    4335    4327    4326    4329    4330
    4327    4326    4329    4331    4327    4326    4329    4332
    4328    4326    4325    4335    4328    4326    4329    4330
    4328    4326    4329    4331    4328    4326    4329    4332
    4329    4326    4325    4335    4329    4332    4335    4336
    4330    4329    4332    4333    4330    4329    4332    4334
    4330    4329    4332    4335    4331    4329    4332    4333
    4331    4329    4332    4334    4331    4329    4332    4335
    4333    4332    4335    4336    4334    4332    4335    4336
    4337    4341    4342    4343    4337    4341    4342    4344
    4337    4341    4342    4345    4337    4341    4351    4348
    4337    4341    4351    4352    4338    4337    4341    4342
    4338    4337    4341    4351    4339    4337    4341    4342
    4339    4337    4341    4351    4340    4337    4341    4342
    4340    4337    4341    4351    4341    4342    4345    4346
    4341    4342    4345    4347    4341    4342    4345    4348
    4341    4351    4348    4345    4341    4351    4348    4349
    4341    4351    4348    4350    4342    4341    4351    4348
    4342    4341    4351    4352    4342    4345    4348    4349
    4342    4345    4348    4350    4342    4345    4348    4351
    4343    4342    4341    4351    4343    4342    4345    4346
    4343    4342    4345    4347    4343    4342    4345    4348
    4344    4342    4341    4351    4344    4342    4345    4346
    4344    4342    4345    4347    4344    4342    4345    4348
    4345    4342    4341    4351    4345    4348    4351    4352
    4346    4345    4348    4349    4346    4345    4348    4350
    4346    4345    4348    4351    4347    4345    4348    4349
    4347    4345    4348    4350    4347    4345    4348    4351
    4349    4348    4351    4352    4350    4348    4351    4352
    4353    4357    4358    4359    4353    4357    4358    4360
    4353    4357    4358    4361    4353    4357    4367    4364
    4353    4357    4367    4368    4354    4353    4357    4358
    4354    4353    4357    4367    4355    4353    4357    4358
    4355    4353    4357    4367    4356    4353    4357    4358
    4356    4353    4357    4367    4357    4358    4361    4362
    4357    4358    4361    4363    4357    4358    4361    4364
    4357    4367    4364    4361    4357    4367    4364    4365
    4357    4367    4364    4366    4358    4357    4367    4364
    4358    4357    4367    4368    4358    4361    4364    4365
    4358    4361    4364    4366    4358    4361    4364    4367
    4359    4358    4357    4367    4359    4358    4361    4362
    4359    4358    4361    4363    4359    4358    4361    4364
    4360    4358    4357    4367    4360    4358    4361    4362
    4360    4358    4361    4363    4360    4358    4361    4364
    4361    4358    4357    4367    4361    4364    4367    4368
    4362    4361    4364    4365    4362    4361    4364    4366
    4362    4361    4364    4367    4363    4361    4364    4365
    4363    4361    4364    4366    4363    4361    4364    4367
    4365    4364    4367    4368    4366    4364    4367    4368
    4369    4373    4374    4375    4369    4373    4374    4376
    4369    4373    4374    4377    4369    4373    4383    4380
    4369    4373    4383    4384    4370    4369    4373    4374
    4370    4369    4373    4383    4371    4369    4373    4374
    4371    4369    4373    4383    4372    4369    4373    4374
    4372    4369    4373    4383    4373    4374    4377    4378
    4373    4374    4377    4379    4373    4374    4377    4380
    4373    4383    4380    4377    4373    4383    4380    4381
    4373    4383    4380    4382    4374    4373    4383    4380
    4374    4373    4383    4384    4374    4377    4380    4381
    4374    4377    4380    4382    4374    4377    4380    4383
    4375    4374    4373    4383    4375    4374    4377    4378
    4375    4374    4377    4379    4375    4374    4377    4380
    4376    4374    4373    4383    4376    4374    4377    4378
    4376    4374    4377    4379    4376    4374    4377    4380
    4377    4374    4373    4383    4377    4380    4383    4384
    4378    4377    4380    4381    4378    4377    4380    4382
    4378    4377    4380    4383    4379    4377    4380    4381
    4379    4377    4380    4382    4379    4377    4380    4383
    4381    4380    4383    4384    4382    4380    4383    4384
    4385    4389    4390    4391    4385    4389    4390    4392
    4385    4389    4390    4393    4385    4389    4399    4396
    4385    4389    4399    4400    4386    4385    4389    4390
    4386    4385    4389    4399    4387    4385    4389    4390
    4387    4385    4389    4399    4388    4385    4389    4390
    4388    4385    4389    4399    4389    4390    4393    4394
    4389    4390    4393    4395    4389    4390    4393    4396
    4389    4399    4396    4393    4389    4399    4396    4397
    4389    4399    4396    4398    4390    4389    4399    4396
    4390    4389    4399    4400    4390    4393    4396    4397
    4390    4393    4396    4398    4390    4393    4396    4399
    4391    4390    4389    4399    4391    4390    4393    4394
    4391    4390    4393    4395    4391    4390    4393    4396
    4392    4390    4389    4399    4392    4390    4393    4394
    4392    4390    4393    4395    4392    4390    4393    4396
    4393    4390    4389    4399    4393    4396    4399    4400
    4394    4393    4396    4397    4394    4393    4396    4398
    4394    4393    4396    4399    4395    4393    4396    4397
    4395    4393    4396    4398    4395    4393    4396    4399
    4397    4396    4399    4400    4398    4396    4399    4400
    4401    4405    4406    4407    4401    4405    4406    4408
    4401    4405    4406    4409    4401    4405    4415    4412
    4401    4405    4415    4416    4402    4401    4405    4406
    4402    4401    4405    4415    4403    4401    4405    4406
    4403    4401    4405    4415    4404    4401    4405    4406
    4404    4401    4405    4415    4405    4406    4409    4410
    4405    4406    4409    4411    4405    4406    4409    4412
    4405    4415    4412    4409    4405    4415    4412    4413
    4405    4415    4412    4414    4406    4405    4415    4412
    4406    4405    4415    4416    4406    4409    4412    4413
    4406    4409    4412    4414    4406    4409    4412    4415
    4407    4406    4405    4415    4407    4406    4409    4410
    4407    4406    4409    4411    4407    4406    4409    4412
    4408    4406    4405    4415    4408    4406    4409    4410
    4408    4406    4409    4411    4408    4406    4409    4412
    4409    4406    4405    4415    4409    4412    4415    4416
    4410    4409    4412    4413    4410    4409    4412    4414
    4410    4409    4412    4415    4411    4409    4412    4413
    4411    4409    4412    4414    4411    4409    4412    4415
    4413    4412    4415    4416    4414    4412    4415    4416
    4417    4421    4422    4423    4417    4421    4422    4424
    4417    4421    4422    4425    4417    4421    4431    4428
    4417    4421    4431    4432    4418    4417    4421    4422
    4418    4417    4421    4431    4419    4417    4421    4422
    4419    4417    4421    4431    4420    4417    4421    4422
    4420    4417    4421    4431    4421    4422    4425    4426
    4421    4422    4425    4427    4421    4422    4425    4428
    4421    4431    4428    4425    4421    4431    4428    4429
    4421    4431    4428    4430    4422    4421    4431    4428
    4422    4421    4431    4432    4422    4425    4428    4429
    4422    4425    4428    4430    4422    4425    4428    4431
    4423    4422    4421    4431    4423    4422    4425    4426
    4423    4422    4425    4427    4423    4422    4425    4428
    4424    4422    4421    4431    4424    4422    4425    4426
    4424    4422    4425    4427    4424    4422    4425    4428
    4425    4422    4421    4431    4425    4428    4431    4432
    4426    4425    4428    4429    4426    4425    4428    4430
    4426    4425    4428    4431    4427    4425    4428    4429
    4427    4425    4428    4430    4427    4425    4428    4431
    4429    4428    4431    4432    4430    4428    4431    4432
    4433    4437    4438    4439    4433    4437    4438    4440
    4433    4437    4438    4441    4433    4437    4447    4444
    4433    4437    4447    4448    4434    4433    4437    4438
    4434    4433    4437    4447    4435    4433    4437    4438
    4435    4433    4437    4447    4436    4433    4437    4438
    4436    4433    4437    4447    4437    4438    4441    4442
    4437    4438    4441    4443    4437    4438    4441    4444
    4437    4447    4444    4441    4437    4447    4444    4445
    4437    4447    4444    4446    4438    4437    4447    4444
    4438    4437    4447    4448    4438    4441    4444    4445
    4438    4441    4444    4446    4438    4441    4444    4447
    4439    4438    4437    4447    4439    4438    4441    4442
    4439    4438    4441    4443    4439    4438    4441    4444
    4440    4438    4437    4447    4440    4438    4441    4442
    4440    4438    4441    4443    4440    4438    4441    4444
    4441    4438    4437    4447    4441    4444    4447    4448
    4442    4441    4444    4445    4442    4441    4444    4446
    4442    4441    4444    4447    4443    4441    4444    4445
    4443    4441    4444    4446    4443    4441    4444    4447
    4445    4444    4447    4448    4446    4444    4447    4448
    4449    4453    4454    4455    4449    4453    4454    4456
    4449    4453    4454    4457    4449    4453    4463    4460
    4449    4453    4463    4464    4450    4449    4453    4454
    4450    4449    4453    4463    4451    4449    4453    4454
    4451    4449    4453    4463    4452    4449    4453    4454
    4452    4449    4453    4463    4453    4454    4457    4458
    4453    4454    4457    4459    4453    4454    4457    4460
    4453    4463    4460    4457    4453    4463    4460    4461
    4453    4463    4460    4462    4454    4453    4463    4460
    4454    4453    4463    4464    4454    4457    4460    4461
    4454    4457    4460    4462    4454    4457    4460    4463
    4455    4454    4453    4463    4455    4454    4457    4458
    4455    4454    4457    4459    4455    4454    4457    4460
    4456    4454    4453    4463    4456    4454    4457    4458
    4456    4454    4457    4459    4456    4454    4457    4460
    4457    4454    4453    4463    4457    4460    4463    4464
    4458    4457    4460    4461    4458    4457    4460    4462
    4458    4457    4460    4463    4459    4457    4460    4461
    4459    4457    4460    4462    4459    4457    4460    4463
    4461    4460    4463    4464    4462    4460    4463    4464
    4465    4469    4470    4471    4465    4469    4470    4472
    4465    4469    4470    4473    4465    4469    4479    4476
    4465    4469    4479    4480    4466    4465    4469    4470
    4466    4465    4469    4479    4467    4465    4469    4470
    4467    4465    4469    4479    4468    4465    4469    4470
    4468    4465    4469    4479    4469    4470    4473    4474
    4469    4470    4473    4475    4469    4470    4473    4476
    4469    4479    4476    4473    4469    4479    4476    4477
    4469    4479    4476    4478    4470    4469    4479    4476
    4470    4469    4479    4480    4470    4473    4476    4477
    4470    4473    4476    4478    4470    4473    4476    4479
    4471    4470    4469    4479    4471    4470    4473    4474
    4471    4470    4473    4475    4471    4470    4473    4476
    4472    4470    4469    4479    4472    4470    4473    4474
    4472    4470    4473    4475    4472    4470    4473    4476
    4473    4470    4469    4479    4473    4476    4479    4480
    4474    4473    4476    4477    4474    4473    4476    4478
    4474    4473    4476    4479    4475    4473    4476    4477
    4475    4473    4476    4478    4475    4473    4476    4479
    4477    4476    4479    4480    4478    4476    4479    4480
    4481    4485    4486    4487    4481    4485    4486    4488
    4481    4485    4486    4489    4481    4485    4495    4492
    4481    4485    4495    4496    4482    4481    4485    4486
    4482    4481    4485    4495    4483    4481    4485    4486
    4483    4481    4485    4495    4484    4481    4485    4486
    4484    4481    4485    4495    4485    4486    4489    4490
    4485    4486    4489    4491    4485    4486    4489    4492
    4485    4495    4492    4489    4485    4495    4492    4493
    4485    4495    4492    4494    4486    4485    4495    4492
    4486    4485    4495    4496    4486    4489    4492    4493
    4486    4489    4492    4494    4486    4489    4492    4495
    4487    4486    4485    4495    4487    4486    4489    4490
    4487    4486    4489    4491    4487    4486    4489    4492
    4488    4486    4485    4495    4488    4486    4489    4490
    4488    4486    4489    4491    4488    4486    4489    4492
    4489    4486    4485    4495    4489    4492    4495    4496
    4490    4489    4492    4493    4490    4489    4492    4494
    4490    4489    4492    4495    4491    4489    4492    4493
    4491    4489    4492    4494    4491    4489    4492    4495
    4493    4492    4495    4496    4494    4492    4495    4496
    4497    4501    4502    4503    4497    4501    4502    4504
    4497    4501    4502    4505    4497    4501    4511    4508
    4497    4501    4511    4512    4498    4497    4501    4502
    4498    4497    4501    4511    4499    4497    4501    4502
    4499    4497    4501    4511    4500    4497    4501    4502
    4500    4497    4501    4511    4501    4502    4505    4506
    4501    4502    4505    4507    4501    4502    4505    4508
    4501    4511    4508    4505    4501    4511    4508    4509
    4501    4511    4508    4510    4502    4501    4511    4508
    4502    4501    4511    4512    4502    4505    4508    4509
    4502    4505    4508    4510    4502    4505    4508    4511
    4503    4502    4501    4511    4503    4502    4505    4506
    4503    4502    4505    4507    4503    4502    4505    4508
    4504    4502    4501    4511    4504    4502    4505    4506
    4504    4502    4505    4507    4504    4502    4505    4508
    4505    4502    4501    4511    4505    4508    4511    4512
    4506    4505    4508    4509    4506    4505    4508    4510
    4506    4505    4508    4511    4507    4505    4508    4509
    4507    4505    4508    4510    4507    4505    4508    4511
    4509    4508    4511    4512    4510    4508    4511    4512
    4513    4517    4518    4519    4513    4517    4518    4520
    4513    4517    4518    4521    4513    4517    4527    4524
    4513    4517    4527    4528    4514    4513    4517    4518
    4514    4513    4517    4527    4515    4513    4517    4518
    4515    4513    4517    4527    4516    4513    4517    4518
    4516    4513    4517    4527    4517    4518    4521    4522
    4517    4518    4521    4523    4517    4518    4521    4524
    4517    4527    4524    4521    4517    4527    4524    4525
    4517    4527    4524    4526    4518    4517    4527    4524
    4518    4517    4527    4528    4518    4521    4524    4525
    4518    4521    4524    4526    4518    4521    4524    4527
    4519    4518    4517    4527    4519    4518    4521    4522
    4519    4518    4521    4523    4519    4518    4521    4524
    4520    4518    4517    4527    4520    4518    4521    4522
    4520    4518    4521    4523    4520    4518    4521    4524
    4521    4518    4517    4527    4521    4524    4527    4528
    4522    4521    4524    4525    4522    4521    4524    4526
    4522    4521    4524    4527    4523    4521    4524    4525
    4523    4521    4524    4526    4523    4521    4524    4527
    4525    4524    4527    4528    4526    4524    4527    4528
    4529    4533    4534    4535    4529    4533    4534    4536
    4529    4533    4534    4537    4529    4533    4543    4540
    4529    4533    4543    4544    4530    4529    4533    4534
    4530    4529    4533    4543    4531    4529    4533    4534
    4531    4529    4533    4543    4532    4529    4533    4534
    4532    4529    4533    4543    4533    4534    4537    4538
    4533    4534    4537    4539    4533    4534    4537    4540
    4533    4543    4540    4537    4533    4543    4540    4541
    4533    4543    4540    4542    4534    4533    4543    4540
    4534    4533    4543    4544    4534    4537    4540    4541
    4534    4537    4540    4542    4534    4537    4540    4543
    4535    4534    4533    4543    4535    4534    4537    4538
    4535    4534    4537    4539    4535    4534    4537    4540
    4536    4534    4533    4543    4536    4534    4537    4538
    4536    4534    4537    4539    4536    4534    4537    4540
    4537    4534    4533    4543    4537    4540    4543    4544
    4538    4537    4540    4541    4538    4537    4540    4542
    4538    4537    4540    4543    4539    4537    4540    4541
    4539    4537    4540    4542    4539    4537    4540    4543
    4541    4540    4543    4544    4542    4540    4543    4544
    4545    4549    4550    4551    4545    4549    4550    4552
    4545    4549    4550    4553    4545    4549    4559    4556
    4545    4549    4559    4560    4546    4545    4549    4550
    4546    4545    4549    4559    4547    4545    4549    4550
    4547    4545    4549    4559    4548    4545    4549    4550
    4548    4545    4549    4559    4549    4550    4553    4554
    4549    4550    4553    4555    4549    4550    4553    4556
    4549    4559    4556    4553    4549    4559    4556    4557
    4549    4559    4556    4558    4550    4549    4559    4556
    4550    4549    4559    4560    4550    4553    4556    4557
    4550    4553    4556    4558    4550    4553    4556    4559
    4551    4550    4549    4559    4551    4550    4553    4554
    4551    4550    4553    4555    4551    4550    4553    4556
    4552    4550    4549    4559    4552    4550    4553    4554
    4552    4550    4553    4555    4552    4550    4553    4556
    4553    4550    4549    4559    4553    4556    4559    4560
    4554    4553    4556    4557    4554    4553    4556    4558
    4554    4553    4556    4559    4555    4553    4556    4557
    4555    4553    4556    4558    4555    4553    4556    4559
    4557    4556    4559    4560    4558    4556    4559    4560
    4561    4565    4566    4567    4561    4565    4566    4568
    4561    4565    4566    4569    4561    4565    4575    4572
    4561    4565    4575    4576    4562    4561    4565    4566
    4562    4561    4565    4575    4563    4561    4565    4566
    4563    4561    4565    4575    4564    4561    4565    4566
    4564    4561    4565    4575    4565    4566    4569    4570
    4565    4566    4569    4571    4565    4566    4569    4572
    4565    4575    4572    4569    4565    4575    4572    4573
    4565    4575    4572    4574    4566    4565    4575    4572
    4566    4565    4575    4576    4566    4569    4572    4573
    4566    4569    4572    4574    4566    4569    4572    4575
    4567    4566    4565    4575    4567    4566    4569    4570
    4567    4566    4569    4571    4567    4566    4569    4572
    4568    4566    4565    4575    4568    4566    4569    4570
    4568    4566    4569    4571    4568    4566    4569    4572
    4569    4566    4565    4575    4569    4572    4575    4576
    4570    4569    4572    4573    4570    4569    4572    4574
    4570    4569    4572    4575    4571    4569    4572    4573
    4571    4569    4572    4574    4571    4569    4572    4575
    4573    4572    4575    4576    4574    4572    4575    4576
    4577    4581    4582    4583    4577    4581    4582    4584
    4577    4581    4582    4585    4577    4581    4591    4588
    4577    4581    4591    4592    4578    4577    4581    4582
    4578    4577    4581    4591    4579    4577    4581    4582
    4579    4577    4581    4591    4580    4577    4581    4582
    4580    4577    4581    4591    4581    4582    4585    4586
    4581    4582    4585    4587    4581    4582    4585    4588
    4581    4591    4588    4585    4581    4591    4588    4589
    4581    4591    4588    4590    4582    4581    4591    4588
    4582    4581    4591    4592    4582    4585    4588    4589
    4582    4585    4588    4590    4582    4585    4588    4591
    4583    4582    4581    4591    4583    4582    4585    4586
    4583    4582    4585    4587    4583    4582    4585    4588
    4584    4582    4581    4591    4584    4582    4585    4586
    4584    4582    4585    4587    4584    4582    4585    4588
    4585    4582    4581    4591    4585    4588    4591    4592
    4586    4585    4588    4589    4586    4585    4588    4590
    4586    4585    4588    4591    4587    4585    4588    4589
    4587    4585    4588    4590    4587    4585    4588    4591
    4589    4588    4591    4592    4590    4588    4591    4592
    4593    4597    4598    4599    4593    4597    4598    4600
    4593    4597    4598    4601    4593    4597    4607    4604
    4593    4597    4607    4608    4594    4593    4597    4598
    4594    4593    4597    4607    4595    4593    4597    4598
    4595    4593    4597    4607    4596    4593    4597    4598
    4596    4593    4597    4607    4597    4598    4601    4602
    4597    4598    4601    4603    4597    4598    4601    4604
    4597    4607    4604    4601    4597    4607    4604    4605
    4597    4607    4604    4606    4598    4597    4607    4604
    4598    4597    4607    4608    4598    4601    4604    4605
    4598    4601    4604    4606    4598    4601    4604    4607
    4599    4598    4597    4607    4599    4598    4601    4602
    4599    4598    4601    4603    4599    4598    4601    4604
    4600    4598    4597    4607    4600    4598    4601    4602
    4600    4598    4601    4603    4600    4598    4601    4604
    4601    4598    4597    4607    4601    4604    4607    4608
    4602    4601    4604    4605    4602    4601    4604    4606
    4602    4601    4604    4607    4603    4601    4604    4605
    4603    4601    4604    4606    4603    4601    4604    4607
    4605    4604    4607    4608    4606    4604    4607    4608
    4609    4613    4614    4615    4609    4613    4614    4616
    4609    4613    4614    4617    4609    4613    4623    4620
    4609    4613    4623    4624    4610    4609    4613    4614
    4610    4609    4613    4623    4611    4609    4613    4614
    4611    4609    4613    4623    4612    4609    4613    4614
    4612    4609    4613    4623    4613    4614    4617    4618
    4613    4614    4617    4619    4613    4614    4617    4620
    4613    4623    4620    4617    4613    4623    4620    4621
    4613    4623    4620    4622    4614    4613    4623    4620
    4614    4613    4623    4624    4614    4617    4620    4621
    4614    4617    4620    4622    4614    4617    4620    4623
    4615    4614    4613    4623    4615    4614    4617    4618
    4615    4614    4617    4619    4615    4614    4617    4620
    4616    4614    4613    4623    4616    4614    4617    4618
    4616    4614    4617    4619    4616    4614    4617    4620
    4617    4614    4613    4623    4617    4620    4623    4624
    4618    4617    4620    4621    4618    4617    4620    4622
    4618    4617    4620    4623    4619    4617    4620    4621
    4619    4617    4620    4622    4619    4617    4620    4623
    4621    4620    4623    4624    4622    4620    4623    4624
    4625    4629    4630    4631    4625    4629    4630    4632
    4625    4629    4630    4633    4625    4629    4639    4636
    4625    4629    4639    4640    4626    4625    4629    4630
    4626    4625    4629    4639    4627    4625    4629    4630
    4627    4625    4629    4639    4628    4625    4629    4630
    4628    4625    4629    4639    4629    4630    4633    4634
    4629    4630    4633    4635    4629    4630    4633    4636
    4629    4639    4636    4633    4629    4639    4636    4637
    4629    4639    4636    4638    4630    4629    4639    4636
    4630    4629    4639    4640    4630    4633    4636    4637
    4630    4633    4636    4638    4630    4633    4636    4639
    4631    4630    4629    4639    4631    4630    4633    4634
    4631    4630    4633    4635    4631    4630    4633    4636
    4632    4630    4629    4639    4632    4630    4633    4634
    4632    4630    4633    4635    4632    4630    4633    4636
    4633    4630    4629    4639    4633    4636    4639    4640
    4634    4633    4636    4637    4634    4633    4636    4638
    4634    4633    4636    4639    4635    4633    4636    4637
    4635    4633    4636    4638    4635    4633    4636    4639
    4637    4636    4639    4640    4638    4636    4639    4640
    4641    4645    4646    4647    4641    4645    4646    4648
    4641    4645    4646    4649    4641    4645    4655    4652
    4641    4645    4655    4656    4642    4641    4645    4646
    4642    4641    4645    4655    4643    4641    4645    4646
    4643    4641    4645    4655    4644    4641    4645    4646
    4644    4641    4645    4655    4645    4646    4649    4650
    4645    4646    4649    4651    4645    4646    4649    4652
    4645    4655    4652    4649    4645    4655    4652    4653
    4645    4655    4652    4654    4646    4645    4655    4652
    4646    4645    4655    4656    4646    4649    4652    4653
    4646    4649    4652    4654    4646    4649    4652    4655
    4647    4646    4645    4655    4647    4646    4649    4650
    4647    4646    4649    4651    4647    4646    4649    4652
    4648    4646    4645    4655    4648    4646    4649    4650
    4648    4646    4649    4651    4648    4646    4649    4652
    4649    4646    4645    4655    4649    4652    4655    4656
    4650    4649    4652    4653    4650    4649    4652    4654
    4650    4649    4652    4655    4651    4649    4652    4653
    4651    4649    4652    4654    4651    4649    4652    4655
    4653    4652    4655    4656    4654    4652    4655    4656
    4657    4661    4662    4663    4657    4661    4662    4664
    4657    4661    4662    4665    4657    4661    4671    4668
    4657    4661    4671    4672    4658    4657    4661    4662
    4658    4657    4661    4671    4659    4657    4661    4662
    4659    4657    4661    4671    4660    4657    4661    4662
    4660    4657    4661    4671    4661    4662    4665    4666
    4661    4662    4665    4667    4661    4662    4665    4668
    4661    4671    4668    4665    4661    4671    4668    4669
    4661    4671    4668    4670    4662    4661    4671    4668
    4662    4661    4671    4672    4662    4665    4668    4669
    4662    4665    4668    4670    4662    4665    4668    4671
    4663    4662    4661    4671    4663    4662    4665    4666
    4663    4662    4665    4667    4663    4662    4665    4668
    4664    4662    4661    4671    4664    4662    4665    4666
    4664    4662    4665    4667    4664    4662    4665    4668
    4665    4662    4661    4671    4665    4668    4671    4672
    4666    4665    4668    4669    4666    4665    4668    4670
    4666    4665    4668    4671    4667    4665    4668    4669
    4667    4665    4668    4670    4667    4665    4668    4671
    4669    4668    4671    4672    4670    4668    4671    4672
    4673    4677    4678    4679    4673    4677    4678    4680
    4673    4677    4678    4681    4673    4677    4687    4684
    4673    4677    4687    4688    4674    4673    4677    4678
    4674    4673    4677    4687    4675    4673    4677    4678
    4675    4673    4677    4687    4676    4673    4677    4678
    4676    4673    4677    4687    4677    4678    4681    4682
    4677    4678    4681    4683    4677    4678    4681    4684
    4677    4687    4684    4681    4677    4687    4684    4685
    4677    4687    4684    4686    4678    4677    4687    4684
    4678    4677    4687    4688    4678    4681    4684    4685
    4678    4681    4684    4686    4678    4681    4684    4687
    4679    4678    4677    4687    4679    4678    4681    4682
    4679    4678    4681    4683    4679    4678    4681    4684
    4680    4678    4677    4687    4680    4678    4681    4682
    4680    4678    4681    4683    4680    4678    4681    4684
    4681    4678    4677    4687    4681    4684    4687    4688
    4682    4681    4684    4685    4682    4681    4684    4686
    4682    4681    4684    4687    4683    4681    4684    4685
    4683    4681    4684    4686    4683    4681    4684    4687
    4685    4684    4687    4688    4686    4684    4687    4688
    4689    4693    4694    4695    4689    4693    4694    4696
    4689    4693    4694    4697    4689    4693    4703    4700
    4689    4693    4703    4704    4690    4689    4693    4694
    4690    4689    4693    4703    4691    4689    4693    4694
    4691    4689    4693    4703    4692    4689    4693    4694
    4692    4689    4693    4703    4693    4694    4697    4698
    4693    4694    4697    4699    4693    4694    4697    4700
    4693    4703    4700    4697    4693    4703    4700    4701
    4693    4703    4700    4702    4694    4693    4703    4700
    4694    4693    4703    4704    4694    4697    4700    4701
    4694    4697    4700    4702    4694    4697    4700    4703
    4695    4694    4693    4703    4695    4694    4697    4698
    4695    4694    4697    4699    4695    4694    4697    4700
    4696    4694    4693    4703    4696    4694    4697    4698
    4696    4694    4697    4699    4696    4694    4697    4700
    4697    4694    4693    4703    4697    4700    4703    4704
    4698    4697    4700    4701    4698    4697    4700    4702
    4698    4697    4700    4703    4699    4697    4700    4701
    4699    4697    4700    4702    4699    4697    4700    4703
    4701    4700    4703    4704    4702    4700    4703    4704
    4705    4709    4710    4711    4705    4709    4710    4712
    4705    4709    4710    4713    4705    4709    4719    4716
    4705    4709    4719    4720    4706    4705    4709    4710
    4706    4705    4709    4719    4707    4705    4709    4710
    4707    4705    4709    4719    4708    4705    4709    4710
    4708    4705    4709    4719    4709    4710    4713    4714
    4709    4710    4713    4715    4709    4710    4713    4716
    4709    4719    4716    4713    4709    4719    4716    4717
    4709    4719    4716    4718    4710    4709    4719    4716
    4710    4709    4719    4720    4710    4713    4716    4717
    4710    4713    4716    4718    4710    4713    4716    4719
    4711    4710    4709    4719    4711    4710    4713    4714
    4711    4710    4713    4715    4711    4710    4713    4716
    4712    4710    4709    4719    4712    4710    4713    4714
    4712    4710    4713    4715    4712    4710    4713    4716
    4713    4710    4709    4719    4713    4716    4719    4720
    4714    4713    4716    4717    4714    4713    4716    4718
    4714    4713    4716    4719    4715    4713    4716    4717
    4715    4713    4716    4718    4715    4713    4716    4719
    4717    4716    4719    4720    4718    4716    4719    4720
    4721    4725    4726    4727    4721    4725    4726    4728
    4721    4725    4726    4729    4721    4725    4735    4732
    4721    4725    4735    4736    4722    4721    4725    4726
    4722    4721    4725    4735    4723    4721    4725    4726
    4723    4721    4725    4735    4724    4721    4725    4726
    4724    4721    4725    4735    4725    4726    4729    4730
    4725    4726    4729    4731    4725    4726    4729    4732
    4725    4735    4732    4729    4725    4735    4732    4733
    4725    4735    4732    4734    4726    4725    4735    4732
    4726    4725    4735    4736    4726    4729    4732    4733
    4726    4729    4732    4734    4726    4729    4732    4735
    4727    4726    4725    4735    4727    4726    4729    4730
    4727    4726    4729    4731    4727    4726    4729    4732
    4728    4726    4725    4735    4728    4726    4729    4730
    4728    4726    4729    4731    4728    4726    4729    4732
    4729    4726    4725    4735    4729    4732    4735    4736
    4730    4729    4732    4733    4730    4729    4732    4734
    4730    4729    4732    4735    4731    4729    4732    4733
    4731    4729    4732    4734    4731    4729    4732    4735
    4733    4732    4735    4736    4734    4732    4735    4736
    4737    4741    4742    4743    4737    4741    4742    4744
    4737    4741    4742    4745    4737    4741    4751    4748
    4737    4741    4751    4752    4738    4737    4741    4742
    4738    4737    4741    4751    4739    4737    4741    4742
    4739    4737    4741    4751    4740    4737    4741    4742
    4740    4737    4741    4751    4741    4742    4745    4746
    4741    4742    4745    4747    4741    4742    4745    4748
    4741    4751    4748    4745    4741    4751    4748    4749
    4741    4751    4748    4750    4742    4741    4751    4748
    4742    4741    4751    4752    4742    4745    4748    4749
    4742    4745    4748    4750    4742    4745    4748    4751
    4743    4742    4741    4751    4743    4742    4745    4746
    4743    4742    4745    4747    4743    4742    4745    4748
    4744    4742    4741    4751    4744    4742    4745    4746
    4744    4742    4745    4747    4744    4742    4745    4748
    4745    4742    4741    4751    4745    4748    4751    4752
    4746    4745    4748    4749    4746    4745    4748    4750
    4746    4745    4748    4751    4747    4745    4748    4749
    4747    4745    4748    4750    4747    4745    4748    4751
    4749    4748    4751    4752    4750    4748    4751    4752
    4753    4757    4758    4759    4753    4757    4758    4760
    4753    4757    4758    4761    4753    4757    4767    4764
    4753    4757    4767    4768    4754    4753    4757    4758
    4754    4753    4757    4767    4755    4753    4757    4758
    4755    4753    4757    4767    4756    4753    4757    4758
    4756    4753    4757    4767    4757    4758    4761    4762
    4757    4758    4761    4763    4757    4758    4761    4764
    4757    4767    4764    4761    4757    4767    4764    4765
    4757    4767    4764    4766    4758    4757    4767    4764
    4758    4757    4767    4768    4758    4761    4764    4765
    4758    4761    4764    4766    4758    4761    4764    4767
    4759    4758    4757    4767    4759    4758    4761    4762
    4759    4758    4761    4763    4759    4758    4761    4764
    4760    4758    4757    4767    4760    4758    4761    4762
    4760    4758    4761    4763    4760    4758    4761    4764
    4761    4758    4757    4767    4761    4764    4767    4768
    4762    4761    4764    4765    4762    4761    4764    4766
    4762    4761    4764    4767    4763    4761    4764    4765
    4763    4761    4764    4766    4763    4761    4764    4767
    4765    4764    4767    4768    4766    4764    4767    4768
    4769    4773    4774    4775    4769    4773    4774    4776
    4769    4773    4774    4777    4769    4773    4783    4780
    4769    4773    4783    4784    4770    4769    4773    4774
    4770    4769    4773    4783    4771    4769    4773    4774
    4771    4769    4773    4783    4772    4769    4773    4774
    4772    4769    4773    4783    4773    4774    4777    4778
    4773    4774    4777    4779    4773    4774    4777    4780
    4773    4783    4780    4777    4773    4783    4780    4781
    4773    4783    4780    4782    4774    4773    4783    4780
    4774    4773    4783    4784    4774    4777    4780    4781
    4774    4777    4780    4782    4774    4777    4780    4783
    4775    4774    4773    4783    4775    4774    4777    4778
    4775    4774    4777    4779    4775    4774    4777    4780
    4776    4774    4773    4783    4776    4774    4777    4778
    4776    4774    4777    4779    4776    4774    4777    4780
    4777    4774    4773    4783    4777    4780    4783    4784
    4778    4777    4780    4781    4778    4777    4780    4782
    4778    4777    4780    4783    4779    4777    4780    4781
    4779    4777    4780    4782    4779    4777    4780    4783
    4781    4780    4783    4784    4782    4780    4783    4784
    4785    4789    4790    4791    4785    4789    4790    4792
    4785    4789    4790    4793    4785    4789    4799    4796
    4785    4789    4799    4800    4786    4785    4789    4790
    4786    4785    4789    4799    4787    4785    4789    4790
    4787    4785    4789    4799    4788    4785    4789    4790
    4788    4785    4789    4799    4789    4790    4793    4794
    4789    4790    4793    4795    4789    4790    4793    4796
    4789    4799    4796    4793    4789    4799    4796    4797
    4789    4799    4796    4798    4790    4789    4799    4796
    4790    4789    4799    4800    4790    4793    4796    4797
    4790    4793    4796    4798    4790    4793    4796    4799
    4791    4790    4789    4799    4791    4790    4793    4794
    4791    4790    4793    4795    4791    4790    4793    4796
    4792    4790    4789    4799    4792    4790    4793    4794
    4792    4790    4793    4795    4792    4790    4793    4796
    4793    4790    4789    4799    4793    4796    4799    4800
    4794    4793    4796    4797    4794    4793    4796    4798
    4794    4793    4796    4799    4795    4793    4796    4797
    4795    4793    4796    4798    4795    4793    4796    4799
    4797    4796    4799    4800    4798    4796    4799    4800
    4801    4805    4806    4807    4801    4805    4806    4808
    4801    4805    4806    4809    4801    4805    4815    4812
    4801    4805    4815    4816    4802    4801    4805    4806
    4802    4801    4805    4815    4803    4801    4805    4806
    4803    4801    4805    4815    4804    4801    4805    4806
    4804    4801    4805    4815    4805    4806    4809    4810
    4805    4806    4809    4811    4805    4806    4809    4812
    4805    4815    4812    4809    4805    4815    4812    4813
    4805    4815    4812    4814    4806    4805    4815    4812
    4806    4805    4815    4816    4806    4809    4812    4813
    4806    4809    4812    4814    4806    4809    4812    4815
    4807    4806    4805    4815    4807    4806    4809    4810
    4807    4806    4809    4811    4807    4806    4809    4812
    4808    4806    4805    4815    4808    4806    4809    4810
    4808    4806    4809    4811    4808    4806    4809    4812
    4809    4806    4805    4815    4809    4812    4815    4816
    4810    4809    4812    4813    4810    4809    4812    4814
    4810    4809    4812    4815    4811    4809    4812    4813
    4811    4809    4812    4814    4811    4809    4812    4815
    4813    4812    4815    4816    4814    4812    4815    4816
    4817    4821    4822    4823    4817    4821    4822    4824
    4817    4821    4822    4825    4817    4821    4831    4828
    4817    4821    4831    4832    4818    4817    4821    4822
    4818    4817    4821    4831    4819    4817    4821    4822
    4819    4817    4821    4831    4820    4817    4821    4822
    4820    4817    4821    4831    4821    4822    4825    4826
    4821    4822    4825    4827    4821    4822    4825    4828
    4821    4831    4828    4825    4821    4831    4828    4829
    4821    4831    4828    4830    4822    4821    4831    4828
    4822    4821    4831    4832    4822    4825    4828    4829
    4822    4825    4828    4830    4822    4825    4828    4831
    4823    4822    4821    4831    4823    4822    4825    4826
    4823    4822    4825    4827    4823    4822    4825    4828
    4824    4822    4821    4831    4824    4822    4825    4826
    4824    4822    4825    4827    4824    4822    4825    4828
    4825    4822    4821    4831    4825    4828    4831    4832
    4826    4825    4828    4829    4826    4825    4828    4830
    4826    4825    4828    4831    4827    4825    4828    4829
    4827    4825    4828    4830    4827    4825    4828    4831
    4829    4828    4831    4832    4830    4828    4831    4832
    4833    4837    4838    4839    4833    4837    4838    4840
    4833    4837    4838    4841    4833    4837    4847    4844
    4833    4837    4847    4848    4834    4833    4837    4838
    4834    4833    4837    4847    4835    4833    4837    4838
    4835    4833    4837    4847    4836    4833    4837    4838
    4836    4833    4837    4847    4837    4838    4841    4842
    4837    4838    4841    4843    4837    4838    4841    4844
    4837    4847    4844    4841    4837    4847    4844    4845
    4837    4847    4844    4846    4838    4837    4847    4844
    4838    4837    4847    4848    4838    4841    4844    4845
    4838    4841    4844    4846    4838    4841    4844    4847
    4839    4838    4837    4847    4839    4838    4841    4842
    4839    4838    4841    4843    4839    4838    4841    4844
    4840    4838    4837    4847    4840    4838    4841    4842
    4840    4838    4841    4843    4840    4838    4841    4844
    4841    4838    4837    4847    4841    4844    4847    4848
    4842    4841    4844    4845    4842    4841    4844    4846
    4842    4841    4844    4847    4843    4841    4844    4845
    4843    4841    4844    4846    4843    4841    4844    4847
    4845    4844    4847    4848    4846    4844    4847    4848
    4849    4853    4854    4855    4849    4853    4854    4856
    4849    4853    4854    4857    4849    4853    4863    4860
    4849    4853    4863    4864    4850    4849    4853    4854
    4850    4849    4853    4863    4851    4849    4853    4854
    4851    4849    4853    4863    4852    4849    4853    4854
    4852    4849    4853    4863    4853    4854    4857    4858
    4853    4854    4857    4859    4853    4854    4857    4860
    4853    4863    4860    4857    4853    4863    4860    4861
    4853    4863    4860    4862    4854    4853    4863    4860
    4854    4853    4863    4864    4854    4857    4860    4861
    4854    4857    4860    4862    4854    4857    4860    4863
    4855    4854    4853    4863    4855    4854    4857    4858
    4855    4854    4857    4859    4855    4854    4857    4860
    4856    4854    4853    4863    4856    4854    4857    4858
    4856    4854    4857    4859    4856    4854    4857    4860
    4857    4854    4853    4863    4857    4860    4863    4864
    4858    4857    4860    4861    4858    4857    4860    4862
    4858    4857    4860    4863    4859    4857    4860    4861
    4859    4857    4860    4862    4859    4857    4860    4863
    4861    4860    4863    4864    4862    4860    4863    4864
    4865    4869    4870    4871    4865    4869    4870    4872
    4865    4869    4870    4873    4865    4869    4879    4876
    4865    4869    4879    4880    4866    4865    4869    4870
    4866    4865    4869    4879    4867    4865    4869    4870
    4867    4865    4869    4879    4868    4865    4869    4870
    4868    4865    4869    4879    4869    4870    4873    4874
    4869    4870    4873    4875    4869    4870    4873    4876
    4869    4879    4876    4873    4869    4879    4876    4877
    4869    4879    4876    4878    4870    4869    4879    4876
    4870    4869    4879    4880    4870    4873    4876    4877
    4870    4873    4876    4878    4870    4873    4876    4879
    4871    4870    4869    4879    4871    4870    4873    4874
    4871    4870    4873    4875    4871    4870    4873    4876
    4872    4870    4869    4879    4872    4870    4873    4874
    4872    4870    4873    4875    4872    4870    4873    4876
    4873    4870    4869    4879    4873    4876    4879    4880
    4874    4873    4876    4877    4874    4873    4876    4878
    4874    4873    4876    4879    4875    4873    4876    4877
    4875    4873    4876    4878    4875    4873    4876    4879
    4877    4876    4879    4880    4878    4876    4879    4880
    4881    4885    4886    4887    4881    4885    4886    4888
    4881    4885    4886    4889    4881    4885    4895    4892
    4881    4885    4895    4896    4882    4881    4885    4886
    4882    4881    4885    4895    4883    4881    4885    4886
    4883    4881    4885    4895    4884    4881    4885    4886
    4884    4881    4885    4895    4885    4886    4889    4890
    4885    4886    4889    4891    4885    4886    4889    4892
    4885    4895    4892    4889    4885    4895    4892    4893
    4885    4895    4892    4894    4886    4885    4895    4892
    4886    4885    4895    4896    4886    4889    4892    4893
    4886    4889    4892    4894    4886    4889    4892    4895
    4887    4886    4885    4895    4887    4886    4889    4890
    4887    4886    4889    4891    4887    4886    4889    4892
    4888    4886    4885    4895    4888    4886    4889    4890
    4888    4886    4889    4891    4888    4886    4889    4892
    4889    4886    4885    4895    4889    4892    4895    4896
    4890    4889    4892    4893    4890    4889    4892    4894
    4890    4889    4892    4895    4891    4889    4892    4893
    4891    4889    4892    4894    4891    4889    4892    4895
    4893    4892    4895    4896    4894    4892    4895    4896
    4897    4901    4902    4903    4897    4901    4902    4904
    4897    4901    4902    4905    4897    4901    4911    4908
    4897    4901    4911    4912    4898    4897    4901    4902
    4898    4897    4901    4911    4899    4897    4901    4902
    4899    4897    4901    4911    4900    4897    4901    4902
    4900    4897    4901    4911    4901    4902    4905    4906
    4901    4902    4905    4907    4901    4902    4905    4908
    4901    4911    4908    4905    4901    4911    4908    4909
    4901    4911    4908    4910    4902    4901    4911    4908
    4902    4901    4911    4912    4902    4905    4908    4909
    4902    4905    4908    4910    4902    4905    4908    4911
    4903    4902    4901    4911    4903    4902    4905    4906
    4903    4902    4905    4907    4903    4902    4905    4908
    4904    4902    4901    4911    4904    4902    4905    4906
    4904    4902    4905    4907    4904    4902    4905    4908
    4905    4902    4901    4911    4905    4908    4911    4912
    4906    4905    4908    4909    4906    4905    4908    4910
    4906    4905    4908    4911    4907    4905    4908    4909
    4907    4905    4908    4910    4907    4905    4908    4911
    4909    4908    4911    4912    4910    4908    4911    4912
    4913    4917    4918    4919    4913    4917    4918    4920
    4913    4917    4918    4921    4913    4917    4927    4924
    4913    4917    4927    4928    4914    4913    4917    4918
    4914    4913    4917    4927    4915    4913    4917    4918
    4915    4913    4917    4927    4916    4913    4917    4918
    4916    4913    4917    4927    4917    4918    4921    4922
    4917    4918    4921    4923    4917    4918    4921    4924
    4917    4927    4924    4921    4917    4927    4924    4925
    4917    4927    4924    4926    4918    4917    4927    4924
    4918    4917    4927    4928    4918    4921    4924    4925
    4918    4921    4924    4926    4918    4921    4924    4927
    4919    4918    4917    4927    4919    4918    4921    4922
    4919    4918    4921    4923    4919    4918    4921    4924
    4920    4918    4917    4927    4920    4918    4921    4922
    4920    4918    4921    4923    4920    4918    4921    4924
    4921    4918    4917    4927    4921    4924    4927    4928
    4922    4921    4924    4925    4922    4921    4924    4926
    4922    4921    4924    4927    4923    4921    4924    4925
    4923    4921    4924    4926    4923    4921    4924    4927
    4925    4924    4927    4928    4926    4924    4927    4928
    4929    4933    4934    4935    4929    4933    4934    4936
    4929    4933    4934    4937    4929    4933    4943    4940
    4929    4933    4943    4944    4930    4929    4933    4934
    4930    4929    4933    4943    4931    4929    4933    4934
    4931    4929    4933    4943    4932    4929    4933    4934
    4932    4929    4933    4943    4933    4934    4937    4938
    4933    4934    4937    4939    4933    4934    4937    4940
    4933    4943    4940    4937    4933    4943    4940    4941
    4933    4943    4940    4942    4934    4933    4943    4940
    4934    4933    4943    4944    4934    4937    4940    4941
    4934    4937    4940    4942    4934    4937    4940    4943
    4935    4934    4933    4943    4935    4934    4937    4938
    4935    4934    4937    4939    4935    4934    4937    4940
    4936    4934    4933    4943    4936    4934    4937    4938
    4936    4934    4937    4939    4936    4934    4937    4940
    4937    4934    4933    4943    4937    4940    4943    4944
    4938    4937    4940    4941    4938    4937    4940    4942
    4938    4937    4940    4943    4939    4937    4940    4941
    4939    4937    4940    4942    4939    4937    4940    4943
    4941    4940    4943    4944    4942    4940    4943    4944
    4945    4949    4950    4951    4945    4949    4950    4952
    4945    4949    4950    4953    4945    4949    4959    4956
    4945    4949    4959    4960    4946    4945    4949    4950
    4946    4945    4949    4959    4947    4945    4949    4950
    4947    4945    4949    4959    4948    4945    4949    4950
    4948    4945    4949    4959    4949    4950    4953    4954
    4949    4950    4953    4955    4949    4950    4953    4956
    4949    4959    4956    4953    4949    4959    4956    4957
    4949    4959    4956    4958    4950    4949    4959    4956
    4950    4949    4959    4960    4950    4953    4956    4957
    4950    4953    4956    4958    4950    4953    4956    4959
    4951    4950    4949    4959    4951    4950    4953    4954
    4951    4950    4953    4955    4951    4950    4953    4956
    4952    4950    4949    4959    4952    4950    4953    4954
    4952    4950    4953    4955    4952    4950    4953    4956
    4953    4950    4949    4959    4953    4956    4959    4960
    4954    4953    4956    4957    4954    4953    4956    4958
    4954    4953    4956    4959    4955    4953    4956    4957
    4955    4953    4956    4958    4955    4953    4956    4959
    4957    4956    4959    4960    4958    4956    4959    4960
    4961    4965    4966    4967    4961    4965    4966    4968
    4961    4965    4966    4969    4961    4965    4975    4972
    4961    4965    4975    4976    4962    4961    4965    4966
    4962    4961    4965    4975    4963    4961    4965    4966
    4963    4961    4965    4975    4964    4961    4965    4966
    4964    4961    4965    4975    4965    4966    4969    4970
    4965    4966    4969    4971    4965    4966    4969    4972
    4965    4975    4972    4969    4965    4975    4972    4973
    4965    4975    4972    4974    4966    4965    4975    4972
    4966    4965    4975    4976    4966    4969    4972    4973
    4966    4969    4972    4974    4966    4969    4972    4975
    4967    4966    4965    4975    4967    4966    4969    4970
    4967    4966    4969    4971    4967    4966    4969    4972
    4968    4966    4965    4975    4968    4966    4969    4970
    4968    4966    4969    4971    4968    4966    4969    4972
    4969    4966    4965    4975    4969    4972    4975    4976
    4970    4969    4972    4973    4970    4969    4972    4974
    4970    4969    4972    4975    4971    4969    4972    4973
    4971    4969    4972    4974    4971    4969    4972    4975
    4973    4972    4975    4976    4974    4972    4975    4976
    4977    4981    4982    4983    4977    4981    4982    4984
    4977    4981    4982    4985    4977    4981    4991    4988
    4977    4981    4991    4992    4978    4977    4981    4982
    4978    4977    4981    4991    4979    4977    4981    4982
    4979    4977    4981    4991    4980    4977    4981    4982
    4980    4977    4981    4991    4981    4982    4985    4986
    4981    4982    4985    4987    4981    4982    4985    4988
    4981    4991    4988    4985    4981    4991    4988    4989
    4981    4991    4988    4990    4982    4981    4991    4988
    4982    4981    4991    4992    4982    4985    4988    4989
    4982    4985    4988    4990    4982    4985    4988    4991
    4983    4982    4981    4991    4983    4982    4985    4986
    4983    4982    4985    4987    4983    4982    4985    4988
    4984    4982    4981    4991    4984    4982    4985    4986
    4984    4982    4985    4987    4984    4982    4985    4988
    4985    4982    4981    4991    4985    4988    4991    4992
    4986    4985    4988    4989    4986    4985    4988    4990
    4986    4985    4988    4991    4987    4985    4988    4989
    4987    4985    4988    4990    4987    4985    4988    4991
    4989    4988    4991    4992    4990    4988    4991    4992
    4993    4997    4998    4999    4993    4997    4998    5000
    4993    4997    4998    5001    4993    4997    5007    5004
    4993    4997    5007    5008    4994    4993    4997    4998
    4994    4993    4997    5007    4995    4993    4997    4998
    4995    4993    4997    5007    4996    4993    4997    4998
    4996    4993    4997    5007    4997    4998    5001    5002
    4997    4998    5001    5003    4997    4998    5001    5004
    4997    5007    5004    5001    4997    5007    5004    5005
    4997    5007    5004    5006    4998    4997    5007    5004
    4998    4997    5007    5008    4998    5001    5004    5005
    4998    5001    5004    5006    4998    5001    5004    5007
    4999    4998    4997    5007    4999    4998    5001    5002
    4999    4998    5001    5003    4999    4998    5001    5004
    5000    4998    4997    5007    5000    4998    5001    5002
    5000    4998    5001    5003    5000    4998    5001    5004
    5001    4998    4997    5007    5001    5004    5007    5008
    5002    5001    5004    5005    5002    5001    5004    5006
    5002    5001    5004    5007    5003    5001    5004    5005
    5003    5001    5004    5006    5003    5001    5004    5007
    5005    5004    5007    5008    5006    5004    5007    5008
    5009    5013    5014    5015    5009    5013    5014    5016
    5009    5013    5014    5017    5009    5013    5023    5020
    5009    5013    5023    5024    5010    5009    5013    5014
    5010    5009    5013    5023    5011    5009    5013    5014
    5011    5009    5013    5023    5012    5009    5013    5014
    5012    5009    5013    5023    5013    5014    5017    5018
    5013    5014    5017    5019    5013    5014    5017    5020
    5013    5023    5020    5017    5013    5023    5020    5021
    5013    5023    5020    5022    5014    5013    5023    5020
    5014    5013    5023    5024    5014    5017    5020    5021
    5014    5017    5020    5022    5014    5017    5020    5023
    5015    5014    5013    5023    5015    5014    5017    5018
    5015    5014    5017    5019    5015    5014    5017    5020
    5016    5014    5013    5023    5016    5014    5017    5018
    5016    5014    5017    5019    5016    5014    5017    5020
    5017    5014    5013    5023    5017    5020    5023    5024
    5018    5017    5020    5021    5018    5017    5020    5022
    5018    5017    5020    5023    5019    5017    5020    5021
    5019    5017    5020    5022    5019    5017    5020    5023
    5021    5020    5023    5024    5022    5020    5023    5024
    5025    5029    5030    5031    5025    5029    5030    5032
    5025    5029    5030    5033    5025    5029    5039    5036
    5025    5029    5039    5040    5026    5025    5029    5030
    5026    5025    5029    5039    5027    5025    5029    5030
    5027    5025    5029    5039    5028    5025    5029    5030
    5028    5025    5029    5039    5029    5030    5033    5034
    5029    5030    5033    5035    5029    5030    5033    5036
    5029    5039    5036    5033    5029    5039    5036    5037
    5029    5039    5036    5038    5030    5029    5039    5036
    5030    5029    5039    5040    5030    5033    5036    5037
    5030    5033    5036    5038    5030    5033    5036    5039
    5031    5030    5029    5039    5031    5030    5033    5034
    5031    5030    5033    5035    5031    5030    5033    5036
    5032    5030    5029    5039    5032    5030    5033    5034
    5032    5030    5033    5035    5032    5030    5033    5036
    5033    5030    5029    5039    5033    5036    5039    5040
    5034    5033    5036    5037    5034    5033    5036    5038
    5034    5033    5036    5039    5035    5033    5036    5037
    5035    5033    5036    5038    5035    5033    5036    5039
    5037    5036    5039    5040    5038    5036    5039    5040
    5041    5045    5046    5047    5041    5045    5046    5048
    5041    5045    5046    5049    5041    5045    5055    5052
    5041    5045    5055    5056    5042    5041    5045    5046
    5042    5041    5045    5055    5043    5041    5045    5046
    5043    5041    5045    5055    5044    5041    5045    5046
    5044    5041    5045    5055    5045    5046    5049    5050
    5045    5046    5049    5051    5045    5046    5049    5052
    5045    5055    5052    5049    5045    5055    5052    5053
    5045    5055    5052    5054    5046    5045    5055    5052
    5046    5045    5055    5056    5046    5049    5052    5053
    5046    5049    5052    5054    5046    5049    5052    5055
    5047    5046    5045    5055    5047    5046    5049    5050
    5047    5046    5049    5051    5047    5046    5049    5052
    5048    5046    5045    5055    5048    5046    5049    5050
    5048    5046    5049    5051    5048    5046    5049    5052
    5049    5046    5045    5055    5049    5052    5055    5056
    5050    5049    5052    5053    5050    5049    5052    5054
    5050    5049    5052    5055    5051    5049    5052    5053
    5051    5049    5052    5054    5051    5049    5052    5055
    5053    5052    5055    5056    5054    5052    5055    5056
    5057    5061    5062    5063    5057    5061    5062    5064
    5057    5061    5062    5065    5057    5061    5071    5068
    5057    5061    5071    5072    5058    5057    5061    5062
    5058    5057    5061    5071    5059    5057    5061    5062
    5059    5057    5061    5071    5060    5057    5061    5062
    5060    5057    5061    5071    5061    5062    5065    5066
    5061    5062    5065    5067    5061    5062    5065    5068
    5061    5071    5068    5065    5061    5071    5068    5069
    5061    5071    5068    5070    5062    5061    5071    5068
    5062    5061    5071    5072    5062    5065    5068    5069
    5062    5065    5068    5070    5062    5065    5068    5071
    5063    5062    5061    5071    5063    5062    5065    5066
    5063    5062    5065    5067    5063    5062    5065    5068
    5064    5062    5061    5071    5064    5062    5065    5066
    5064    5062    5065    5067    5064    5062    5065    5068
    5065    5062    5061    5071    5065    5068    5071    5072
    5066    5065    5068    5069    5066    5065    5068    5070
    5066    5065    5068    5071    5067    5065    5068    5069
    5067    5065    5068    5070    5067    5065    5068    5071
    5069    5068    5071    5072    5070    5068    5071    5072
    5073    5077    5078    5079    5073    5077    5078    5080
    5073    5077    5078    5081    5073    5077    5087    5084
    5073    5077    5087    5088    5074    5073    5077    5078
    5074    5073    5077    5087    5075    5073    5077    5078
    5075    5073    5077    5087    5076    5073    5077    5078
    5076    5073    5077    5087    5077    5078    5081    5082
    5077    5078    5081    5083    5077    5078    5081    5084
    5077    5087    5084    5081    5077    5087    5084    5085
    5077    5087    5084    5086    5078    5077    5087    5084
    5078    5077    5087    5088    5078    5081    5084    5085
    5078    5081    5084    5086    5078    5081    5084    5087
    5079    5078    5077    5087    5079    5078    5081    5082
    5079    5078    5081    5083    5079    5078    5081    5084
    5080    5078    5077    5087    5080    5078    5081    5082
    5080    5078    5081    5083    5080    5078    5081    5084
    5081    5078    5077    5087    5081    5084    5087    5088
    5082    5081    5084    5085    5082    5081    5084    5086
    5082    5081    5084    5087    5083    5081    5084    5085
    5083    5081    5084    5086    5083    5081    5084    5087
    5085    5084    5087    5088    5086    5084    5087    5088
    5089    5093    5094    5095    5089    5093    5094    5096
    5089    5093    5094    5097    5089    5093    5103    5100
    5089    5093    5103    5104    5090    5089    5093    5094
    5090    5089    5093    5103    5091    5089    5093    5094
    5091    5089    5093    5103    5092    5089    5093    5094
    5092    5089    5093    5103    5093    5094    5097    5098
    5093    5094    5097    5099    5093    5094    5097    5100
    5093    5103    5100    5097    5093    5103    5100    5101
    5093    5103    5100    5102    5094    5093    5103    5100
    5094    5093    5103    5104    5094    5097    5100    5101
    5094    5097    5100    5102    5094    5097    5100    5103
    5095    5094    5093    5103    5095    5094    5097    5098
    5095    5094    5097    5099    5095    5094    5097    5100
    5096    5094    5093    5103    5096    5094    5097    5098
    5096    5094    5097    5099    5096    5094    5097    5100
    5097    5094    5093    5103    5097    5100    5103    5104
    5098    5097    5100    5101    5098    5097    5100    5102
    5098    5097    5100    5103    5099    5097    5100    5101
    5099    5097    5100    5102    5099    5097    5100    5103
    5101    5100    5103    5104    5102    5100    5103    5104
    5105    5109    5110    5111    5105    5109    5110    5112
    5105    5109    5110    5113    5105    5109    5119    5116
    5105    5109    5119    5120    5106    5105    5109    5110
    5106    5105    5109    5119    5107    5105    5109    5110
    5107    5105    5109    5119    5108    5105    5109    5110
    5108    5105    5109    5119    5109    5110    5113    5114
    5109    5110    5113    5115    5109    5110    5113    5116
    5109    5119    5116    5113    5109    5119    5116    5117
    5109    5119    5116    5118    5110    5109    5119    5116
    5110    5109    5119    5120    5110    5113    5116    5117
    5110    5113    5116    5118    5110    5113    5116    5119
    5111    5110    5109    5119    5111    5110    5113    5114
    5111    5110    5113    5115    5111    5110    5113    5116
    5112    5110    5109    5119    5112    5110    5113    5114
    5112    5110    5113    5115    5112    5110    5113    5116
    5113    5110    5109    5119    5113    5116    5119    5120
    5114    5113    5116    5117    5114    5113    5116    5118
    5114    5113    5116    5119    5115    5113    5116    5117
    5115    5113    5116    5118    5115    5113    5116    5119
    5117    5116    5119    5120    5118    5116    5119    5120
    5121    5125    5126    5127    5121    5125    5126    5128
    5121    5125    5126    5129    5121    5125    5135    5132
    5121    5125    5135    5136    5122    5121    5125    5126
    5122    5121    5125    5135    5123    5121    5125    5126
    5123    5121    5125    5135    5124    5121    5125    5126
    5124    5121    5125    5135    5125    5126    5129    5130
    5125    5126    5129    5131    5125    5126    5129    5132
    5125    5135    5132    5129    5125    5135    5132    5133
    5125    5135    5132    5134    5126    5125    5135    5132
    5126    5125    5135    5136    5126    5129    5132    5133
    5126    5129    5132    5134    5126    5129    5132    5135
    5127    5126    5125    5135    5127    5126    5129    5130
    5127    5126    5129    5131    5127    5126    5129    5132
    5128    5126    5125    5135    5128    5126    5129    5130
    5128    5126    5129    5131    5128    5126    5129    5132
    5129    5126    5125    5135    5129    5132    5135    5136
    5130    5129    5132    5133    5130    5129    5132    5134
    5130    5129    5132    5135    5131    5129    5132    5133
    5131    5129    5132    5134    5131    5129    5132    5135
    5133    5132    5135    5136    5134    5132    5135    5136
    5137    5141    5142    5143    5137    5141    5142    5144
    5137    5141    5142    5145    5137    5141    5151    5148
    5137    5141    5151    5152    5138    5137    5141    5142
    5138    5137    5141    5151    5139    5137    5141    5142
    5139    5137    5141    5151    5140    5137    5141    5142
    5140    5137    5141    5151    5141    5142    5145    5146
    5141    5142    5145    5147    5141    5142    5145    5148
    5141    5151    5148    5145    5141    5151    5148    5149
    5141    5151    5148    5150    5142    5141    5151    5148
    5142    5141    5151    5152    5142    5145    5148    5149
    5142    5145    5148    5150    5142    5145    5148    5151
    5143    5142    5141    5151    5143    5142    5145    5146
    5143    5142    5145    5147    5143    5142    5145    5148
    5144    5142    5141    5151    5144    5142    5145    5146
    5144    5142    5145    5147    5144    5142    5145    5148
    5145    5142    5141    5151    5145    5148    5151    5152
    5146    5145    5148    5149    5146    5145    5148    5150
    5146    5145    5148    5151    5147    5145    5148    5149
    5147    5145    5148    5150    5147    5145    5148    5151
    5149    5148    5151    5152    5150    5148    5151    5152
    5153    5157    5158    5159    5153    5157    5158    5160
    5153    5157    5158    5161    5153    5157    5167    5164
    5153    5157    5167    5168    5154    5153    5157    5158
    5154    5153    5157    5167    5155    5153    5157    5158
    5155    5153    5157    5167    5156    5153    5157    5158
    5156    5153    5157    5167    5157    5158    5161    5162
    5157    5158    5161    5163    5157    5158    5161    5164
    5157    5167    5164    5161    5157    5167    5164    5165
    5157    5167    5164    5166    5158    5157    5167    5164
    5158    5157    5167    5168    5158    5161    5164    5165
    5158    5161    5164    5166    5158    5161    5164    5167
    5159    5158    5157    5167    5159    5158    5161    5162
    5159    5158    5161    5163    5159    5158    5161    5164
    5160    5158    5157    5167    5160    5158    5161    5162
    5160    5158    5161    5163    5160    5158    5161    5164
    5161    5158    5157    5167    5161    5164    5167    5168
    5162    5161    5164    5165    5162    5161    5164    5166
    5162    5161    5164    5167    5163    5161    5164    5165
    5163    5161    5164    5166    5163    5161    5164    5167
    5165    5164    5167    5168    5166    5164    5167    5168
    5169    5173    5174    5175    5169    5173    5174    5176
    5169    5173    5174    5177    5169    5173    5183    5180
    5169    5173    5183    5184    5170    5169    5173    5174
    5170    5169    5173    5183    5171    5169    5173    5174
    5171    5169    5173    5183    5172    5169    5173    5174
    5172    5169    5173    5183    5173    5174    5177    5178
    5173    5174    5177    5179    5173    5174    5177    5180
    5173    5183    5180    5177    5173    5183    5180    5181
    5173    5183    5180    5182    5174    5173    5183    5180
    5174    5173    5183    5184    5174    5177    5180    5181
    5174    5177    5180    5182    5174    5177    5180    5183
    5175    5174    5173    5183    5175    5174    5177    5178
    5175    5174    5177    5179    5175    5174    5177    5180
    5176    5174    5173    5183    5176    5174    5177    5178
    5176    5174    5177    5179    5176    5174    5177    5180
    5177    5174    5173    5183    5177    5180    5183    5184
    5178    5177    5180    5181    5178    5177    5180    5182
    5178    5177    5180    5183    5179    5177    5180    5181
    5179    5177    5180    5182    5179    5177    5180    5183
    5181    5180    5183    5184    5182    5180    5183    5184
    5185    5189    5190    5191    5185    5189    5190    5192
    5185    5189    5190    5193    5185    5189    5199    5196
    5185    5189    5199    5200    5186    5185    5189    5190
    5186    5185    5189    5199    5187    5185    5189    5190
    5187    5185    5189    5199    5188    5185    5189    5190
    5188    5185    5189    5199    5189    5190    5193    5194
    5189    5190    5193    5195    5189    5190    5193    5196
    5189    5199    5196    5193    5189    5199    5196    5197
    5189    5199    5196    5198    5190    5189    5199    5196
    5190    5189    5199    5200    5190    5193    5196    5197
    5190    5193    5196    5198    5190    5193    5196    5199
    5191    5190    5189    5199    5191    5190    5193    5194
    5191    5190    5193    5195    5191    5190    5193    5196
    5192    5190    5189    5199    5192    5190    5193    5194
    5192    5190    5193    5195    5192    5190    5193    5196
    5193    5190    5189    5199    5193    5196    5199    5200
    5194    5193    5196    5197    5194    5193    5196    5198
    5194    5193    5196    5199    5195    5193    5196    5197
    5195    5193    5196    5198    5195    5193    5196    5199
    5197    5196    5199    5200    5198    5196    5199    5200
    5201    5205    5206    5207    5201    5205    5206    5208
    5201    5205    5206    5209    5201    5205    5215    5212
    5201    5205    5215    5216    5202    5201    5205    5206
    5202    5201    5205    5215    5203    5201    5205    5206
    5203    5201    5205    5215    5204    5201    5205    5206
    5204    5201    5205    5215    5205    5206    5209    5210
    5205    5206    5209    5211    5205    5206    5209    5212
    5205    5215    5212    5209    5205    5215    5212    5213
    5205    5215    5212    5214    5206    5205    5215    5212
    5206    5205    5215    5216    5206    5209    5212    5213
    5206    5209    5212    5214    5206    5209    5212    5215
    5207    5206    5205    5215    5207    5206    5209    5210
    5207    5206    5209    5211    5207    5206    5209    5212
    5208    5206    5205    5215    5208    5206    5209    5210
    5208    5206    5209    5211    5208    5206    5209    5212
    5209    5206    5205    5215    5209    5212    5215    5216
    5210    5209    5212    5213    5210    5209    5212    5214
    5210    5209    5212    5215    5211    5209    5212    5213
    5211    5209    5212    5214    5211    5209    5212    5215
    5213    5212    5215    5216    5214    5212    5215    5216
    5217    5221    5222    5223    5217    5221    5222    5224
    5217    5221    5222    5225    5217    5221    5231    5228
    5217    5221    5231    5232    5218    5217    5221    5222
    5218    5217    5221    5231    5219    5217    5221    5222
    5219    5217    5221    5231    5220    5217    5221    5222
    5220    5217    5221    5231    5221    5222    5225    5226
    5221    5222    5225    5227    5221    5222    5225    5228
    5221    5231    5228    5225    5221    5231    5228    5229
    5221    5231    5228    5230    5222    5221    5231    5228
    5222    5221    5231    5232    5222    5225    5228    5229
    5222    5225    5228    5230    5222    5225    5228    5231
    5223    5222    5221    5231    5223    5222    5225    5226
    5223    5222    5225    5227    5223    5222    5225    5228
    5224    5222    5221    5231    5224    5222    5225    5226
    5224    5222    5225    5227    5224    5222    5225    5228
    5225    5222    5221    5231    5225    5228    5231    5232
    5226    5225    5228    5229    5226    5225    5228    5230
    5226    5225    5228    5231    5227    5225    5228    5229
    5227    5225    5228    5230    5227    5225    5228    5231
    5229    5228    5231    5232    5230    5228    5231    5232
    5233    5237    5238    5239    5233    5237    5238    5240
    5233    5237    5238    5241    5233    5237    5247    5244
    5233    5237    5247    5248    5234    5233    5237    5238
    5234    5233    5237    5247    5235    5233    5237    5238
    5235    5233    5237    5247    5236    5233    5237    5238
    5236    5233    5237    5247    5237    5238    5241    5242
    5237    5238    5241    5243    5237    5238    5241    5244
    5237    5247    5244    5241    5237    5247    5244    5245
    5237    5247    5244    5246    5238    5237    5247    5244
    5238    5237    5247    5248    5238    5241    5244    5245
    5238    5241    5244    5246    5238    5241    5244    5247
    5239    5238    5237    5247    5239    5238    5241    5242
    5239    5238    5241    5243    5239    5238    5241    5244
    5240    5238    5237    5247    5240    5238    5241    5242
    5240    5238    5241    5243    5240    5238    5241    5244
    5241    5238    5237    5247    5241    5244    5247    5248
    5242    5241    5244    5245    5242    5241    5244    5246
    5242    5241    5244    5247    5243    5241    5244    5245
    5243    5241    5244    5246    5243    5241    5244    5247
    5245    5244    5247    5248    5246    5244    5247    5248
    5249    5253    5254    5255    5249    5253    5254    5256
    5249    5253    5254    5257    5249    5253    5263    5260
    5249    5253    5263    5264    5250    5249    5253    5254
    5250    5249    5253    5263    5251    5249    5253    5254
    5251    5249    5253    5263    5252    5249    5253    5254
    5252    5249    5253    5263    5253    5254    5257    5258
    5253    5254    5257    5259    5253    5254    5257    5260
    5253    5263    5260    5257    5253    5263    5260    5261
    5253    5263    5260    5262    5254    5253    5263    5260
    5254    5253    5263    5264    5254    5257    5260    5261
    5254    5257    5260    5262    5254    5257    5260    5263
    5255    5254    5253    5263    5255    5254    5257    5258
    5255    5254    5257    5259    5255    5254    5257    5260
    5256    5254    5253    5263    5256    5254    5257    5258
    5256    5254    5257    5259    5256    5254    5257    5260
    5257    5254    5253    5263    5257    5260    5263    5264
    5258    5257    5260    5261    5258    5257    5260    5262
    5258    5257    5260    5263    5259    5257    5260    5261
    5259    5257    5260    5262    5259    5257    5260    5263
    5261    5260    5263    5264    5262    5260    5263    5264
    5265    5269    5270    5271    5265    5269    5270    5272
    5265    5269    5270    5273    5265    5269    5279    5276
    5265    5269    5279    5280    5266    5265    5269    5270
    5266    5265    5269    5279    5267    5265    5269    5270
    5267    5265    5269    5279    5268    5265    5269    5270
    5268    5265    5269    5279    5269    5270    5273    5274
    5269    5270    5273    5275    5269    5270    5273    5276
    5269    5279    5276    5273    5269    5279    5276    5277
    5269    5279    5276    5278    5270    5269    5279    5276
    5270    5269    5279    5280    5270    5273    5276    5277
    5270    5273    5276    5278    5270    5273    5276    5279
    5271    5270    5269    5279    5271    5270    5273    5274
    5271    5270    5273    5275    5271    5270    5273    5276
    5272    5270    5269    5279    5272    5270    5273    5274
    5272    5270    5273    5275    5272    5270    5273    5276
    5273    5270    5269    5279    5273    5276    5279    5280
    5274    5273    5276    5277    5274    5273    5276    5278
    5274    5273    5276    5279    5275    5273    5276    5277
    5275    5273    5276    5278    5275    5273    5276    5279
    5277    5276    5279    5280    5278    5276    5279    5280
    5281    5285    5286    5287    5281    5285    5286    5288
    5281    5285    5286    5289    5281    5285    5295    5292
    5281    5285    5295    5296    5282    5281    5285    5286
    5282    5281    5285    5295    5283    5281    5285    5286
    5283    5281    5285    5295    5284    5281    5285    5286
    5284    5281    5285    5295    5285    5286    5289    5290
    5285    5286    5289    5291    5285    5286    5289    5292
    5285    5295    5292    5289    5285    5295    5292    5293
    5285    5295    5292    5294    5286    5285    5295    5292
    5286    5285    5295    5296    5286    5289    5292    5293
    5286    5289    5292    5294    5286    5289    5292    5295
    5287    5286    5285    5295    5287    5286    5289    5290
    5287    5286    5289    5291    5287    5286    5289    5292
    5288    5286    5285    5295    5288    5286    5289    5290
    5288    5286    5289    5291    5288    5286    5289    5292
    5289    5286    5285    5295    5289    5292    5295    5296
    5290    5289    5292    5293    5290    5289    5292    5294
    5290    5289    5292    5295    5291    5289    5292    5293
    5291    5289    5292    5294    5291    5289    5292    5295
    5293    5292    5295    5296    5294    5292    5295    5296
    5297    5301    5302    5303    5297    5301    5302    5304
    5297    5301    5302    5305    5297    5301    5311    5308
    5297    5301    5311    5312    5298    5297    5301    5302
    5298    5297    5301    5311    5299    5297    5301    5302
    5299    5297    5301    5311    5300    5297    5301    5302
    5300    5297    5301    5311    5301    5302    5305    5306
    5301    5302    5305    5307    5301    5302    5305    5308
    5301    5311    5308    5305    5301    5311    5308    5309
    5301    5311    5308    5310    5302    5301    5311    5308
    5302    5301    5311    5312    5302    5305    5308    5309
    5302    5305    5308    5310    5302    5305    5308    5311
    5303    5302    5301    5311    5303    5302    5305    5306
    5303    5302    5305    5307    5303    5302    5305    5308
    5304    5302    5301    5311    5304    5302    5305    5306
    5304    5302    5305    5307    5304    5302    5305    5308
    5305    5302    5301    5311    5305    5308    5311    5312
    5306    5305    5308    5309    5306    5305    5308    5310
    5306    5305    5308    5311    5307    5305    5308    5309
    5307    5305    5308    5310    5307    5305    5308    5311
    5309    5308    5311    5312    5310    5308    5311    5312
    5313    5317    5318    5319    5313    5317    5318    5320
    5313    5317    5318    5321    5313    5317    5327    5324
    5313    5317    5327    5328    5314    5313    5317    5318
    5314    5313    5317    5327    5315    5313    5317    5318
    5315    5313    5317    5327    5316    5313    5317    5318
    5316    5313    5317    5327    5317    5318    5321    5322
    5317    5318    5321    5323    5317    5318    5321    5324
    5317    5327    5324    5321    5317    5327    5324    5325
    5317    5327    5324    5326    5318    5317    5327    5324
    5318    5317    5327    5328    5318    5321    5324    5325
    5318    5321    5324    5326    5318    5321    5324    5327
    5319    5318    5317    5327    5319    5318    5321    5322
    5319    5318    5321    5323    5319    5318    5321    5324
    5320    5318    5317    5327    5320    5318    5321    5322
    5320    5318    5321    5323    5320    5318    5321    5324
    5321    5318    5317    5327    5321    5324    5327    5328
    5322    5321    5324    5325    5322    5321    5324    5326
    5322    5321    5324    5327    5323    5321    5324    5325
    5323    5321    5324    5326    5323    5321    5324    5327
    5325    5324    5327    5328    5326    5324    5327    5328
    5329    5333    5334    5335    5329    5333    5334    5336
    5329    5333    5334    5337    5329    5333    5343    5340
    5329    5333    5343    5344    5330    5329    5333    5334
    5330    5329    5333    5343    5331    5329    5333    5334
    5331    5329    5333    5343    5332    5329    5333    5334
    5332    5329    5333    5343    5333    5334    5337    5338
    5333    5334    5337    5339    5333    5334    5337    5340
    5333    5343    5340    5337    5333    5343    5340    5341
    5333    5343    5340    5342    5334    5333    5343    5340
    5334    5333    5343    5344    5334    5337    5340    5341
    5334    5337    5340    5342    5334    5337    5340    5343
    5335    5334    5333    5343    5335    5334    5337    5338
    5335    5334    5337    5339    5335    5334    5337    5340
    5336    5334    5333    5343    5336    5334    5337    5338
    5336    5334    5337    5339    5336    5334    5337    5340
    5337    5334    5333    5343    5337    5340    5343    5344
    5338    5337    5340    5341    5338    5337    5340    5342
    5338    5337    5340    5343    5339    5337    5340    5341
    5339    5337    5340    5342    5339    5337    5340    5343
    5341    5340    5343    5344    5342    5340    5343    5344
    5345    5349    5350    5351    5345    5349    5350    5352
    5345    5349    5350    5353    5345    5349    5359    5356
    5345    5349    5359    5360    5346    5345    5349    5350
    5346    5345    5349    5359    5347    5345    5349    5350
    5347    5345    5349    5359    5348    5345    5349    5350
    5348    5345    5349    5359    5349    5350    5353    5354
    5349    5350    5353    5355    5349    5350    5353    5356
    5349    5359    5356    5353    5349    5359    5356    5357
    5349    5359    5356    5358    5350    5349    5359    5356
    5350    5349    5359    5360    5350    5353    5356    5357
    5350    5353    5356    5358    5350    5353    5356    5359
    5351    5350    5349    5359    5351    5350    5353    5354
    5351    5350    5353    5355    5351    5350    5353    5356
    5352    5350    5349    5359    5352    5350    5353    5354
    5352    5350    5353    5355    5352    5350    5353    5356
    5353    5350    5349    5359    5353    5356    5359    5360
    5354    5353    5356    5357    5354    5353    5356    5358
    5354    5353    5356    5359    5355    5353    5356    5357
    5355    5353    5356    5358    5355    5353    5356    5359
    5357    5356    5359    5360    5358    5356    5359    5360
    5361    5365    5366    5367    5361    5365    5366    5368
    5361    5365    5366    5369    5361    5365    5375    5372
    5361    5365    5375    5376    5362    5361    5365    5366
    5362    5361    5365    5375    5363    5361    5365    5366
    5363    5361    5365    5375    5364    5361    5365    5366
    5364    5361    5365    5375    5365    5366    5369    5370
    5365    5366    5369    5371    5365    5366    5369    5372
    5365    5375    5372    5369    5365    5375    5372    5373
    5365    5375    5372    5374    5366    5365    5375    5372
    5366    5365    5375    5376    5366    5369    5372    5373
    5366    5369    5372    5374    5366    5369    5372    5375
    5367    5366    5365    5375    5367    5366    5369    5370
    5367    5366    5369    5371    5367    5366    5369    5372
    5368    5366    5365    5375    5368    5366    5369    5370
    5368    5366    5369    5371    5368    5366    5369    5372
    5369    5366    5365    5375    5369    5372    5375    5376
    5370    5369    5372    5373    5370    5369    5372    5374
    5370    5369    5372    5375    5371    5369    5372    5373
    5371    5369    5372    5374    5371    5369    5372    5375
    5373    5372    5375    5376    5374    5372    5375    5376
    5377    5381    5382    5383    5377    5381    5382    5384
    5377    5381    5382    5385    5377    5381    5391    5388
    5377    5381    5391    5392    5378    5377    5381    5382
    5378    5377    5381    5391    5379    5377    5381    5382
    5379    5377    5381    5391    5380    5377    5381    5382
    5380    5377    5381    5391    5381    5382    5385    5386
    5381    5382    5385    5387    5381    5382    5385    5388
    5381    5391    5388    5385    5381    5391    5388    5389
    5381    5391    5388    5390    5382    5381    5391    5388
    5382    5381    5391    5392    5382    5385    5388    5389
    5382    5385    5388    5390    5382    5385    5388    5391
    5383    5382    5381    5391    5383    5382    5385    5386
    5383    5382    5385    5387    5383    5382    5385    5388
    5384    5382    5381    5391    5384    5382    5385    5386
    5384    5382    5385    5387    5384    5382    5385    5388
    5385    5382    5381    5391    5385    5388    5391    5392
    5386    5385    5388    5389    5386    5385    5388    5390
    5386    5385    5388    5391    5387    5385    5388    5389
    5387    5385    5388    5390    5387    5385    5388    5391
    5389    5388    5391    5392    5390    5388    5391    5392
    5393    5397    5398    5399    5393    5397    5398    5400
    5393    5397    5398    5401    5393    5397    5407    5404
    5393    5397    5407    5408    5394    5393    5397    5398
    5394    5393    5397    5407    5395    5393    5397    5398
    5395    5393    5397    5407    5396    5393    5397    5398
    5396    5393    5397    5407    5397    5398    5401    5402
    5397    5398    5401    5403    5397    5398    5401    5404
    5397    5407    5404    5401    5397    5407    5404    5405
    5397    5407    5404    5406    5398    5397    5407    5404
    5398    5397    5407    5408    5398    5401    5404    5405
    5398    5401    5404    5406    5398    5401    5404    5407
    5399    5398    5397    5407    5399    5398    5401    5402
    5399    5398    5401    5403    5399    5398    5401    5404
    5400    5398    5397    5407    5400    5398    5401    5402
    5400    5398    5401    5403    5400    5398    5401    5404
    5401    5398    5397    5407    5401    5404    5407    5408
    5402    5401    5404    5405    5402    5401    5404    5406
    5402    5401    5404    5407    5403    5401    5404    5405
    5403    5401    5404    5406    5403    5401    5404    5407
    5405    5404    5407    5408    5406    5404    5407    5408
    5409    5413    5414    5415    5409    5413    5414    5416
    5409    5413    5414    5417    5409    5413    5423    5420
    5409    5413    5423    5424    5410    5409    5413    5414
    5410    5409    5413    5423    5411    5409    5413    5414
    5411    5409    5413    5423    5412    5409    5413    5414
    5412    5409    5413    5423    5413    5414    5417    5418
    5413    5414    5417    5419    5413    5414    5417    5420
    5413    5423    5420    5417    5413    5423    5420    5421
    5413    5423    5420    5422    5414    5413    5423    5420
    5414    5413    5423    5424    5414    5417    5420    5421
    5414    5417    5420    5422    5414    5417    5420    5423
    5415    5414    5413    5423    5415    5414    5417    5418
    5415    5414    5417    5419    5415    5414    5417    5420
    5416    5414    5413    5423    5416    5414    5417    5418
    5416    5414    5417    5419    5416    5414    5417    5420
    5417    5414    5413    5423    5417    5420    5423    5424
    5418    5417    5420    5421    5418    5417    5420    5422
    5418    5417    5420    5423    5419    5417    5420    5421
    5419    5417    5420    5422    5419    5417    5420    5423
    5421    5420    5423    5424    5422    5420    5423    5424
    5425    5429    5430    5431    5425    5429    5430    5432
    5425    5429    5430    5433    5425    5429    5439    5436
    5425    5429    5439    5440    5426    5425    5429    5430
    5426    5425    5429    5439    5427    5425    5429    5430
    5427    5425    5429    5439    5428    5425    5429    5430
    5428    5425    5429    5439    5429    5430    5433    5434
    5429    5430    5433    5435    5429    5430    5433    5436
    5429    5439    5436    5433    5429    5439    5436    5437
    5429    5439    5436    5438    5430    5429    5439    5436
    5430    5429    5439    5440    5430    5433    5436    5437
    5430    5433    5436    5438    5430    5433    5436    5439
    5431    5430    5429    5439    5431    5430    5433    5434
    5431    5430    5433    5435    5431    5430    5433    5436
    5432    5430    5429    5439    5432    5430    5433    5434
    5432    5430    5433    5435    5432    5430    5433    5436
    5433    5430    5429    5439    5433    5436    5439    5440
    5434    5433    5436    5437    5434    5433    5436    5438
    5434    5433    5436    5439    5435    5433    5436    5437
    5435    5433    5436    5438    5435    5433    5436    5439
    5437    5436    5439    5440    5438    5436    5439    5440
    5441    5445    5446    5447    5441    5445    5446    5448
    5441    5445    5446    5449    5441    5445    5455    5452
    5441    5445    5455    5456    5442    5441    5445    5446
    5442    5441    5445    5455    5443    5441    5445    5446
    5443    5441    5445    5455    5444    5441    5445    5446
    5444    5441    5445    5455    5445    5446    5449    5450
    5445    5446    5449    5451    5445    5446    5449    5452
    5445    5455    5452    5449    5445    5455    5452    5453
    5445    5455    5452    5454    5446    5445    5455    5452
    5446    5445    5455    5456    5446    5449    5452    5453
    5446    5449    5452    5454    5446    5449    5452    5455
    5447    5446    5445    5455    5447    5446    5449    5450
    5447    5446    5449    5451    5447    5446    5449    5452
    5448    5446    5445    5455    5448    5446    5449    5450
    5448    5446    5449    5451    5448    5446    5449    5452
    5449    5446    5445    5455    5449    5452    5455    5456
    5450    5449    5452    5453    5450    5449    5452    5454
    5450    5449    5452    5455    5451    5449    5452    5453
    5451    5449    5452    5454    5451    5449    5452    5455
    5453    5452    5455    5456    5454    5452    5455    5456
    5457    5461    5462    5463    5457    5461    5462    5464
    5457    5461    5462    5465    5457    5461    5471    5468
    5457    5461    5471    5472    5458    5457    5461    5462
    5458    5457    5461    5471    5459    5457    5461    5462
    5459    5457    5461    5471    5460    5457    5461    5462
    5460    5457    5461    5471    5461    5462    5465    5466
    5461    5462    5465    5467    5461    5462    5465    5468
    5461    5471    5468    5465    5461    5471    5468    5469
    5461    5471    5468    5470    5462    5461    5471    5468
    5462    5461    5471    5472    5462    5465    5468    5469
    5462    5465    5468    5470    5462    5465    5468    5471
    5463    5462    5461    5471    5463    5462    5465    5466
    5463    5462    5465    5467    5463    5462    5465    5468
    5464    5462    5461    5471    5464    5462    5465    5466
    5464    5462    5465    5467    5464    5462    5465    5468
    5465    5462    5461    5471    5465    5468    5471    5472
    5466    5465    5468    5469    5466    5465    5468    5470
    5466    5465    5468    5471    5467    5465    5468    5469
    5467    5465    5468    5470    5467    5465    5468    5471
    5469    5468    5471    5472    5470    5468    5471    5472
    5473    5477    5478    5479    5473    5477    5478    5480
    5473    5477    5478    5481    5473    5477    5487    5484
    5473    5477    5487    5488    5474    5473    5477    5478
    5474    5473    5477    5487    5475    5473    5477    5478
    5475    5473    5477    5487    5476    5473    5477    5478
    5476    5473    5477    5487    5477    5478    5481    5482
    5477    5478    5481    5483    5477    5478    5481    5484
    5477    5487    5484    5481    5477    5487    5484    5485
    5477    5487    5484    5486    5478    5477    5487    5484
    5478    5477    5487    5488    5478    5481    5484    5485
    5478    5481    5484    5486    5478    5481    5484    5487
    5479    5478    5477    5487    5479    5478    5481    5482
    5479    5478    5481    5483    5479    5478    5481    5484
    5480    5478    5477    5487    5480    5478    5481    5482
    5480    5478    5481    5483    5480    5478    5481    5484
    5481    5478    5477    5487    5481    5484    5487    5488
    5482    5481    5484    5485    5482    5481    5484    5486
    5482    5481    5484    5487    5483    5481    5484    5485
    5483    5481    5484    5486    5483    5481    5484    5487
    5485    5484    5487    5488    5486    5484    5487    5488
    5489    5493    5494    5495    5489    5493    5494    5496
    5489    5493    5494    5497    5489    5493    5503    5500
    5489    5493    5503    5504    5490    5489    5493    5494
    5490    5489    5493    5503    5491    5489    5493    5494
    5491    5489    5493    5503    5492    5489    5493    5494
    5492    5489    5493    5503    5493    5494    5497    5498
    5493    5494    5497    5499    5493    5494    5497    5500
    5493    5503    5500    5497    5493    5503    5500    5501
    5493    5503    5500    5502    5494    5493    5503    5500
    5494    5493    5503    5504    5494    5497    5500    5501
    5494    5497    5500    5502    5494    5497    5500    5503
    5495    5494    5493    5503    5495    5494    5497    5498
    5495    5494    5497    5499    5495    5494    5497    5500
    5496    5494    5493    5503    5496    5494    5497    5498
    5496    5494    5497    5499    5496    5494    5497    5500
    5497    5494    5493    5503    5497    5500    5503    5504
    5498    5497    5500    5501    5498    5497    5500    5502
    5498    5497    5500    5503    5499    5497    5500    5501
    5499    5497    5500    5502    5499    5497    5500    5503
    5501    5500    5503    5504    5502    5500    5503    5504
    5505    5509    5510    5511    5505    5509    5510    5512
    5505    5509    5510    5513    5505    5509    5519    5516
    5505    5509    5519    5520    5506    5505    5509    5510
    5506    5505    5509    5519    5507    5505    5509    5510
    5507    5505    5509    5519    5508    5505    5509    5510
    5508    5505    5509    5519    5509    5510    5513    5514
    5509    5510    5513    5515    5509    5510    5513    5516
    5509    5519    5516    5513    5509    5519    5516    5517
    5509    5519    5516    5518    5510    5509    5519    5516
    5510    5509    5519    5520    5510    5513    5516    5517
    5510    5513    5516    5518    5510    5513    5516    5519
    5511    5510    5509    5519    5511    5510    5513    5514
    5511    5510    5513    5515    5511    5510    5513    5516
    5512    5510    5509    5519    5512    5510    5513    5514
    5512    5510    5513    5515    5512    5510    5513    5516
    5513    5510    5509    5519    5513    5516    5519    5520
    5514    5513    5516    5517    5514    5513    5516    5518
    5514    5513    5516    5519    5515    5513    5516    5517
    5515    5513    5516    5518    5515    5513    5516    5519
    5517    5516    5519    5520    5518    5516    5519    5520
    5521    5525    5526    5527    5521    5525    5526    5528
    5521    5525    5526    5529    5521    5525    5535    5532
    5521    5525    5535    5536    5522    5521    5525    5526
    5522    5521    5525    5535    5523    5521    5525    5526
    5523    5521    5525    5535    5524    5521    5525    5526
    5524    5521    5525    5535    5525    5526    5529    5530
    5525    5526    5529    5531    5525    5526    5529    5532
    5525    5535    5532    5529    5525    5535    5532    5533
    5525    5535    5532    5534    5526    5525    5535    5532
    5526    5525    5535    5536    5526    5529    5532    5533
    5526    5529    5532    5534    5526    5529    5532    5535
    5527    5526    5525    5535    5527    5526    5529    5530
    5527    5526    5529    5531    5527    5526    5529    5532
    5528    5526    5525    5535    5528    5526    5529    5530
    5528    5526    5529    5531    5528    5526    5529    5532
    5529    5526    5525    5535    5529    5532    5535    5536
    5530    5529    5532    5533    5530    5529    5532    5534
    5530    5529    5532    5535    5531    5529    5532    5533
    5531    5529    5532    5534    5531    5529    5532    5535
    5533    5532    5535    5536    5534    5532    5535    5536
    5537    5541    5542    5543    5537    5541    5542    5544
    5537    5541    5542    5545    5537    5541    5551    5548
    5537    5541    5551    5552    5538    5537    5541    5542
    5538    5537    5541    5551    5539    5537    5541    5542
    5539    5537    5541    5551    5540    5537    5541    5542
    5540    5537    5541    5551    5541    5542    5545    5546
    5541    5542    5545    5547    5541    5542    5545    5548
    5541    5551    5548    5545    5541    5551    5548    5549
    5541    5551    5548    5550    5542    5541    5551    5548
    5542    5541    5551    5552    5542    5545    5548    5549
    5542    5545    5548    5550    5542    5545    5548    5551
    5543    5542    5541    5551    5543    5542    5545    5546
    5543    5542    5545    5547    5543    5542    5545    5548
    5544    5542    5541    5551    5544    5542    5545    5546
    5544    5542    5545    5547    5544    5542    5545    5548
    5545    5542    5541    5551    5545    5548    5551    5552
    5546    5545    5548    5549    5546    5545    5548    5550
    5546    5545    5548    5551    5547    5545    5548    5549
    5547    5545    5548    5550    5547    5545    5548    5551
    5549    5548    5551    5552    5550    5548    5551    5552
    5553    5557    5558    5559    5553    5557    5558    5560
    5553    5557    5558    5561    5553    5557    5567    5564
    5553    5557    5567    5568    5554    5553    5557    5558
    5554    5553    5557    5567    5555    5553    5557    5558
    5555    5553    5557    5567    5556    5553    5557    5558
    5556    5553    5557    5567    5557    5558    5561    5562
    5557    5558    5561    5563    5557    5558    5561    5564
    5557    5567    5564    5561    5557    5567    5564    5565
    5557    5567    5564    5566    5558    5557    5567    5564
    5558    5557    5567    5568    5558    5561    5564    5565
    5558    5561    5564    5566    5558    5561    5564    5567
    5559    5558    5557    5567    5559    5558    5561    5562
    5559    5558    5561    5563    5559    5558    5561    5564
    5560    5558    5557    5567    5560    5558    5561    5562
    5560    5558    5561    5563    5560    5558    5561    5564
    5561    5558    5557    5567    5561    5564    5567    5568
    5562    5561    5564    5565    5562    5561    5564    5566
    5562    5561    5564    5567    5563    5561    5564    5565
    5563    5561    5564    5566    5563    5561    5564    5567
    5565    5564    5567    5568    5566    5564    5567    5568
    5569    5573    5574    5575    5569    5573    5574    5576
    5569    5573    5574    5577    5569    5573    5583    5580
    5569    5573    5583    5584    5570    5569    5573    5574
    5570    5569    5573    5583    5571    5569    5573    5574
    5571    5569    5573    5583    5572    5569    5573    5574
    5572    5569    5573    5583    5573    5574    5577    5578
    5573    5574    5577    5579    5573    5574    5577    5580
    5573    5583    5580    5577    5573    5583    5580    5581
    5573    5583    5580    5582    5574    5573    5583    5580
    5574    5573    5583    5584    5574    5577    5580    5581
    5574    5577    5580    5582    5574    5577    5580    5583
    5575    5574    5573    5583    5575    5574    5577    5578
    5575    5574    5577    5579    5575    5574    5577    5580
    5576    5574    5573    5583    5576    5574    5577    5578
    5576    5574    5577    5579    5576    5574    5577    5580
    5577    5574    5573    5583    5577    5580    5583    5584
    5578    5577    5580    5581    5578    5577    5580    5582
    5578    5577    5580    5583    5579    5577    5580    5581
    5579    5577    5580    5582    5579    5577    5580    5583
    5581    5580    5583    5584    5582    5580    5583    5584
    5585    5589    5590    5591    5585    5589    5590    5592
    5585    5589    5590    5593    5585    5589    5599    5596
    5585    5589    5599    5600    5586    5585    5589    5590
    5586    5585    5589    5599    5587    5585    5589    5590
    5587    5585    5589    5599    5588    5585    5589    5590
    5588    5585    5589    5599    5589    5590    5593    5594
    5589    5590    5593    5595    5589    5590    5593    5596
    5589    5599    5596    5593    5589    5599    5596    5597
    5589    5599    5596    5598    5590    5589    5599    5596
    5590    5589    5599    5600    5590    5593    5596    5597
    5590    5593    5596    5598    5590    5593    5596    5599
    5591    5590    5589    5599    5591    5590    5593    5594
    5591    5590    5593    5595    5591    5590    5593    5596
    5592    5590    5589    5599    5592    5590    5593    5594
    5592    5590    5593    5595    5592    5590    5593    5596
    5593    5590    5589    5599    5593    5596    5599    5600
    5594    5593    5596    5597    5594    5593    5596    5598
    5594    5593    5596    5599    5595    5593    5596    5597
    5595    5593    5596    5598    5595    5593    5596    5599
    5597    5596    5599    5600    5598    5596    5599    5600
    5601    5605    5606    5607    5601    5605    5606    5608
    5601    5605    5606    5609    5601    5605    5615    5612
    5601    5605    5615    5616    5602    5601    5605    5606
    5602    5601    5605    5615    5603    5601    5605    5606
    5603    5601    5605    5615    5604    5601    5605    5606
    5604    5601    5605    5615    5605    5606    5609    5610
    5605    5606    5609    5611    5605    5606    5609    5612
    5605    5615    5612    5609    5605    5615    5612    5613
    5605    5615    5612    5614    5606    5605    5615    5612
    5606    5605    5615    5616    5606    5609    5612    5613
    5606    5609    5612    5614    5606    5609    5612    5615
    5607    5606    5605    5615    5607    5606    5609    5610
    5607    5606    5609    5611    5607    5606    5609    5612
    5608    5606    5605    5615    5608    5606    5609    5610
    5608    5606    5609    5611    5608    5606    5609    5612
    5609    5606    5605    5615    5609    5612    5615    5616
    5610    5609    5612    5613    5610    5609    5612    5614
    5610    5609    5612    5615    5611    5609    5612    5613
    5611    5609    5612    5614    5611    5609    5612    5615
    5613    5612    5615    5616    5614    5612    5615    5616
    5617    5621    5622    5623    5617    5621    5622    5624
    5617    5621    5622    5625    5617    5621    5631    5628
    5617    5621    5631    5632    5618    5617    5621    5622
    5618    5617    5621    5631    5619    5617    5621    5622
    5619    5617    5621    5631    5620    5617    5621    5622
    5620    5617    5621    5631    5621    5622    5625    5626
    5621    5622    5625    5627    5621    5622    5625    5628
    5621    5631    5628    5625    5621    5631    5628    5629
    5621    5631    5628    5630    5622    5621    5631    5628
    5622    5621    5631    5632    5622    5625    5628    5629
    5622    5625    5628    5630    5622    5625    5628    5631
    5623    5622    5621    5631    5623    5622    5625    5626
    5623    5622    5625    5627    5623    5622    5625    5628
    5624    5622    5621    5631    5624    5622    5625    5626
    5624    5622    5625    5627    5624    5622    5625    5628
    5625    5622    5621    5631    5625    5628    5631    5632
    5626    5625    5628    5629    5626    5625    5628    5630
    5626    5625    5628    5631    5627    5625    5628    5629
    5627    5625    5628    5630    5627    5625    5628    5631
    5629    5628    5631    5632    5630    5628    5631    5632
    5633    5637    5638    5639    5633    5637    5638    5640
    5633    5637    5638    5641    5633    5637    5647    5644
    5633    5637    5647    5648    5634    5633    5637    5638
    5634    5633    5637    5647    5635    5633    5637    5638
    5635    5633    5637    5647    5636    5633    5637    5638
    5636    5633    5637    5647    5637    5638    5641    5642
    5637    5638    5641    5643    5637    5638    5641    5644
    5637    5647    5644    5641    5637    5647    5644    5645
    5637    5647    5644    5646    5638    5637    5647    5644
    5638    5637    5647    5648    5638    5641    5644    5645
    5638    5641    5644    5646    5638    5641    5644    5647
    5639    5638    5637    5647    5639    5638    5641    5642
    5639    5638    5641    5643    5639    5638    5641    5644
    5640    5638    5637    5647    5640    5638    5641    5642
    5640    5638    5641    5643    5640    5638    5641    5644
    5641    5638    5637    5647    5641    5644    5647    5648
    5642    5641    5644    5645    5642    5641    5644    5646
    5642    5641    5644    5647    5643    5641    5644    5645
    5643    5641    5644    5646    5643    5641    5644    5647
    5645    5644    5647    5648    5646    5644    5647    5648
    5649    5653    5654    5655    5649    5653    5654    5656
    5649    5653    5654    5657    5649    5653    5663    5660
    5649    5653    5663    5664    5650    5649    5653    5654
    5650    5649    5653    5663    5651    5649    5653    5654
    5651    5649    5653    5663    5652    5649    5653    5654
    5652    5649    5653    5663    5653    5654    5657    5658
    5653    5654    5657    5659    5653    5654    5657    5660
    5653    5663    5660    5657    5653    5663    5660    5661
    5653    5663    5660    5662    5654    5653    5663    5660
    5654    5653    5663    5664    5654    5657    5660    5661
    5654    5657    5660    5662    5654    5657    5660    5663
    5655    5654    5653    5663    5655    5654    5657    5658
    5655    5654    5657    5659    5655    5654    5657    5660
    5656    5654    5653    5663    5656    5654    5657    5658
    5656    5654    5657    5659    5656    5654    5657    5660
    5657    5654    5653    5663    5657    5660    5663    5664
    5658    5657    5660    5661    5658    5657    5660    5662
    5658    5657    5660    5663    5659    5657    5660    5661
    5659    5657    5660    5662    5659    5657    5660    5663
    5661    5660    5663    5664    5662    5660    5663    5664
    5665    5669    5670    5671    5665    5669    5670    5672
    5665    5669    5670    5673    5665    5669    5679    5676
    5665    5669    5679    5680    5666    5665    5669    5670
    5666    5665    5669    5679    5667    5665    5669    5670
    5667    5665    5669    5679    5668    5665    5669    5670
    5668    5665    5669    5679    5669    5670    5673    5674
    5669    5670    5673    5675    5669    5670    5673    5676
    5669    5679    5676    5673    5669    5679    5676    5677
    5669    5679    5676    5678    5670    5669    5679    5676
    5670    5669    5679    5680    5670    5673    5676    5677
    5670    5673    5676    5678    5670    5673    5676    5679
    5671    5670    5669    5679    5671    5670    5673    5674
    5671    5670    5673    5675    5671    5670    5673    5676
    5672    5670    5669    5679    5672    5670    5673    5674
    5672    5670    5673    5675    5672    5670    5673    5676
    5673    5670    5669    5679    5673    5676    5679    5680
    5674    5673    5676    5677    5674    5673    5676    5678
    5674    5673    5676    5679    5675    5673    5676    5677
    5675    5673    5676    5678    5675    5673    5676    5679
    5677    5676    5679    5680    5678    5676    5679    5680
    5681    5685    5686    5687    5681    5685    5686    5688
    5681    5685    5686    5689    5681    5685    5695    5692
    5681    5685    5695    5696    5682    5681    5685    5686
    5682    5681    5685    5695    5683    5681    5685    5686
    5683    5681    5685    5695    5684    5681    5685    5686
    5684    5681    5685    5695    5685    5686    5689    5690
    5685    5686    5689    5691    5685    5686    5689    5692
    5685    5695    5692    5689    5685    5695    5692    5693
    5685    5695    5692    5694    5686    5685    5695    5692
    5686    5685    5695    5696    5686    5689    5692    5693
    5686    5689    5692    5694    5686    5689    5692    5695
    5687    5686    5685    5695    5687    5686    5689    5690
    5687    5686    5689    5691    5687    5686    5689    5692
    5688    5686    5685    5695    5688    5686    5689    5690
    5688    5686    5689    5691    5688    5686    5689    5692
    5689    5686    5685    5695    5689    5692    5695    5696
    5690    5689    5692    5693    5690    5689    5692    5694
    5690    5689    5692    5695    5691    5689    5692    5693
    5691    5689    5692    5694    5691    5689    5692    5695
    5693    5692    5695    5696    5694    5692    5695    5696
    5697    5701    5702    5703    5697    5701    5702    5704
    5697    5701    5702    5705    5697    5701    5711    5708
    5697    5701    5711    5712    5698    5697    5701    5702
    5698    5697    5701    5711    5699    5697    5701    5702
    5699    5697    5701    5711    5700    5697    5701    5702
    5700    5697    5701    5711    5701    5702    5705    5706
    5701    5702    5705    5707    5701    5702    5705    5708
    5701    5711    5708    5705    5701    5711    5708    5709
    5701    5711    5708    5710    5702    5701    5711    5708
    5702    5701    5711    5712    5702    5705    5708    5709
    5702    5705    5708    5710    5702    5705    5708    5711
    5703    5702    5701    5711    5703    5702    5705    5706
    5703    5702    5705    5707    5703    5702    5705    5708
    5704    5702    5701    5711    5704    5702    5705    5706
    5704    5702    5705    5707    5704    5702    5705    5708
    5705    5702    5701    5711    5705    5708    5711    5712
    5706    5705    5708    5709    5706    5705    5708    5710
    5706    5705    5708    5711    5707    5705    5708    5709
    5707    5705    5708    5710    5707    5705    5708    5711
    5709    5708    5711    5712    5710    5708    5711    5712
    5713    5717    5718    5719    5713    5717    5718    5720
    5713    5717    5718    5721    5713    5717    5727    5724
    5713    5717    5727    5728    5714    5713    5717    5718
    5714    5713    5717    5727    5715    5713    5717    5718
    5715    5713    5717    5727    5716    5713    5717    5718
    5716    5713    5717    5727    5717    5718    5721    5722
    5717    5718    5721    5723    5717    5718    5721    5724
    5717    5727    5724    5721    5717    5727    5724    5725
    5717    5727    5724    5726    5718    5717    5727    5724
    5718    5717    5727    5728    5718    5721    5724    5725
    5718    5721    5724    5726    5718    5721    5724    5727
    5719    5718    5717    5727    5719    5718    5721    5722
    5719    5718    5721    5723    5719    5718    5721    5724
    5720    5718    5717    5727    5720    5718    5721    5722
    5720    5718    5721    5723    5720    5718    5721    5724
    5721    5718    5717    5727    5721    5724    5727    5728
    5722    5721    5724    5725    5722    5721    5724    5726
    5722    5721    5724    5727    5723    5721    5724    5725
    5723    5721    5724    5726    5723    5721    5724    5727
    5725    5724    5727    5728    5726    5724    5727    5728
    5729    5733    5734    5735    5729    5733    5734    5736
    5729    5733    5734    5737    5729    5733    5743    5740
    5729    5733    5743    5744    5730    5729    5733    5734
    5730    5729    5733    5743    5731    5729    5733    5734
    5731    5729    5733    5743    5732    5729    5733    5734
    5732    5729    5733    5743    5733    5734    5737    5738
    5733    5734    5737    5739    5733    5734    5737    5740
    5733    5743    5740    5737    5733    5743    5740    5741
    5733    5743    5740    5742    5734    5733    5743    5740
    5734    5733    5743    5744    5734    5737    5740    5741
    5734    5737    5740    5742    5734    5737    5740    5743
    5735    5734    5733    5743    5735    5734    5737    5738
    5735    5734    5737    5739    5735    5734    5737    5740
    5736    5734    5733    5743    5736    5734    5737    5738
    5736    5734    5737    5739    5736    5734    5737    5740
    5737    5734    5733    5743    5737    5740    5743    5744
    5738    5737    5740    5741    5738    5737    5740    5742
    5738    5737    5740    5743    5739    5737    5740    5741
    5739    5737    5740    5742    5739    5737    5740    5743
    5741    5740    5743    5744    5742    5740    5743    5744
    5745    5749    5750    5751    5745    5749    5750    5752
    5745    5749    5750    5753    5745    5749    5759    5756
    5745    5749    5759    5760    5746    5745    5749    5750
    5746    5745    5749    5759    5747    5745    5749    5750
    5747    5745    5749    5759    5748    5745    5749    5750
    5748    5745    5749    5759    5749    5750    5753    5754
    5749    5750    5753    5755    5749    5750    5753    5756
    5749    5759    5756    5753    5749    5759    5756    5757
    5749    5759    5756    5758    5750    5749    5759    5756
    5750    5749    5759    5760    5750    5753    5756    5757
    5750    5753    5756    5758    5750    5753    5756    5759
    5751    5750    5749    5759    5751    5750    5753    5754
    5751    5750    5753    5755    5751    5750    5753    5756
    5752    5750    5749    5759    5752    5750    5753    5754
    5752    5750    5753    5755    5752    5750    5753    5756
    5753    5750    5749    5759    5753    5756    5759    5760
    5754    5753    5756    5757    5754    5753    5756    5758
    5754    5753    5756    5759    5755    5753    5756    5757
    5755    5753    5756    5758    5755    5753    5756    5759
    5757    5756    5759    5760    5758    5756    5759    5760
    5761    5765    5766    5767    5761    5765    5766    5768
    5761    5765    5766    5769    5761    5765    5775    5772
    5761    5765    5775    5776    5762    5761    5765    5766
    5762    5761    5765    5775    5763    5761    5765    5766
    5763    5761    5765    5775    5764    5761    5765    5766
    5764    5761    5765    5775    5765    5766    5769    5770
    5765    5766    5769    5771    5765    5766    5769    5772
    5765    5775    5772    5769    5765    5775    5772    5773
    5765    5775    5772    5774    5766    5765    5775    5772
    5766    5765    5775    5776    5766    5769    5772    5773
    5766    5769    5772    5774    5766    5769    5772    5775
    5767    5766    5765    5775    5767    5766    5769    5770
    5767    5766    5769    5771    5767    5766    5769    5772
    5768    5766    5765    5775    5768    5766    5769    5770
    5768    5766    5769    5771    5768    5766    5769    5772
    5769    5766    5765    5775    5769    5772    5775    5776
    5770    5769    5772    5773    5770    5769    5772    5774
    5770    5769    5772    5775    5771    5769    5772    5773
    5771    5769    5772    5774    5771    5769    5772    5775
    5773    5772    5775    5776    5774    5772    5775    5776
    5777    5781    5782    5783    5777    5781    5782    5784
    5777    5781    5782    5785    5777    5781    5791    5788
    5777    5781    5791    5792    5778    5777    5781    5782
    5778    5777    5781    5791    5779    5777    5781    5782
    5779    5777    5781    5791    5780    5777    5781    5782
    5780    5777    5781    5791    5781    5782    5785    5786
    5781    5782    5785    5787    5781    5782    5785    5788
    5781    5791    5788    5785    5781    5791    5788    5789
    5781    5791    5788    5790    5782    5781    5791    5788
    5782    5781    5791    5792    5782    5785    5788    5789
    5782    5785    5788    5790    5782    5785    5788    5791
    5783    5782    5781    5791    5783    5782    5785    5786
    5783    5782    5785    5787    5783    5782    5785    5788
    5784    5782    5781    5791    5784    5782    5785    5786
    5784    5782    5785    5787    5784    5782    5785    5788
    5785    5782    5781    5791    5785    5788    5791    5792
    5786    5785    5788    5789    5786    5785    5788    5790
    5786    5785    5788    5791    5787    5785    5788    5789
    5787    5785    5788    5790    5787    5785    5788    5791
    5789    5788    5791    5792    5790    5788    5791    5792
    5793    5797    5798    5799    5793    5797    5798    5800
    5793    5797    5798    5801    5793    5797    5807    5804
    5793    5797    5807    5808    5794    5793    5797    5798
    5794    5793    5797    5807    5795    5793    5797    5798
    5795    5793    5797    5807    5796    5793    5797    5798
    5796    5793    5797    5807    5797    5798    5801    5802
    5797    5798    5801    5803    5797    5798    5801    5804
    5797    5807    5804    5801    5797    5807    5804    5805
    5797    5807    5804    5806    5798    5797    5807    5804
    5798    5797    5807    5808    5798    5801    5804    5805
    5798    5801    5804    5806    5798    5801    5804    5807
    5799    5798    5797    5807    5799    5798    5801    5802
    5799    5798    5801    5803    5799    5798    5801    5804
    5800    5798    5797    5807    5800    5798    5801    5802
    5800    5798    5801    5803    5800    5798    5801    5804
    5801    5798    5797    5807    5801    5804    5807    5808
    5802    5801    5804    5805    5802    5801    5804    5806
    5802    5801    5804    5807    5803    5801    5804    5805
    5803    5801    5804    5806    5803    5801    5804    5807
    5805    5804    5807    5808    5806    5804    5807    5808
    5809    5813    5814    5815    5809    5813    5814    5816
    5809    5813    5814    5817    5809    5813    5823    5820
    5809    5813    5823    5824    5810    5809    5813    5814
    5810    5809    5813    5823    5811    5809    5813    5814
    5811    5809    5813    5823    5812    5809    5813    5814
    5812    5809    5813    5823    5813    5814    5817    5818
    5813    5814    5817    5819    5813    5814    5817    5820
    5813    5823    5820    5817    5813    5823    5820    5821
    5813    5823    5820    5822    5814    5813    5823    5820
    5814    5813    5823    5824    5814    5817    5820    5821
    5814    5817    5820    5822    5814    5817    5820    5823
    5815    5814    5813    5823    5815    5814    5817    5818
    5815    5814    5817    5819    5815    5814    5817    5820
    5816    5814    5813    5823    5816    5814    5817    5818
    5816    5814    5817    5819    5816    5814    5817    5820
    5817    5814    5813    5823    5817    5820    5823    5824
    5818    5817    5820    5821    5818    5817    5820    5822
    5818    5817    5820    5823    5819    5817    5820    5821
    5819    5817    5820    5822    5819    5817    5820    5823
    5821    5820    5823    5824    5822    5820    5823    5824
    5825    5829    5830    5831    5825    5829    5830    5832
    5825    5829    5830    5833    5825    5829    5839    5836
    5825    5829    5839    5840    5826    5825    5829    5830
    5826    5825    5829    5839    5827    5825    5829    5830
    5827    5825    5829    5839    5828    5825    5829    5830
    5828    5825    5829    5839    5829    5830    5833    5834
    5829    5830    5833    5835    5829    5830    5833    5836
    5829    5839    5836    5833    5829    5839    5836    5837
    5829    5839    5836    5838    5830    5829    5839    5836
    5830    5829    5839    5840    5830    5833    5836    5837
    5830    5833    5836    5838    5830    5833    5836    5839
    5831    5830    5829    5839    5831    5830    5833    5834
    5831    5830    5833    5835    5831    5830    5833    5836
    5832    5830    5829    5839    5832    5830    5833    5834
    5832    5830    5833    5835    5832    5830    5833    5836
    5833    5830    5829    5839    5833    5836    5839    5840
    5834    5833    5836    5837    5834    5833    5836    5838
    5834    5833    5836    5839    5835    5833    5836    5837
    5835    5833    5836    5838    5835    5833    5836    5839
    5837    5836    5839    5840    5838    5836    5839    5840
    5841    5845    5846    5847    5841    5845    5846    5848
    5841    5845    5846    5849    5841    5845    5855    5852
    5841    5845    5855    5856    5842    5841    5845    5846
    5842    5841    5845    5855    5843    5841    5845    5846
    5843    5841    5845    5855    5844    5841    5845    5846
    5844    5841    5845    5855    5845    5846    5849    5850
    5845    5846    5849    5851    5845    5846    5849    5852
    5845    5855    5852    5849    5845    5855    5852    5853
    5845    5855    5852    5854    5846    5845    5855    5852
    5846    5845    5855    5856    5846    5849    5852    5853
    5846    5849    5852    5854    5846    5849    5852    5855
    5847    5846    5845    5855    5847    5846    5849    5850
    5847    5846    5849    5851    5847    5846    5849    5852
    5848    5846    5845    5855    5848    5846    5849    5850
    5848    5846    5849    5851    5848    5846    5849    5852
    5849    5846    5845    5855    5849    5852    5855    5856
    5850    5849    5852    5853    5850    5849    5852    5854
    5850    5849    5852    5855    5851    5849    5852    5853
    5851    5849    5852    5854    5851    5849    5852    5855
    5853    5852    5855    5856    5854    5852    5855    5856
    5857    5861    5862    5863    5857    5861    5862    5864
    5857    5861    5862    5865    5857    5861    5871    5868
    5857    5861    5871    5872    5858    5857    5861    5862
    5858    5857    5861    5871    5859    5857    5861    5862
    5859    5857    5861    5871    5860    5857    5861    5862
    5860    5857    5861    5871    5861    5862    5865    5866
    5861    5862    5865    5867    5861    5862    5865    5868
    5861    5871    5868    5865    5861    5871    5868    5869
    5861    5871    5868    5870    5862    5861    5871    5868
    5862    5861    5871    5872    5862    5865    5868    5869
    5862    5865    5868    5870    5862    5865    5868    5871
    5863    5862    5861    5871    5863    5862    5865    5866
    5863    5862    5865    5867    5863    5862    5865    5868
    5864    5862    5861    5871    5864    5862    5865    5866
    5864    5862    5865    5867    5864    5862    5865    5868
    5865    5862    5861    5871    5865    5868    5871    5872
    5866    5865    5868    5869    5866    5865    5868    5870
    5866    5865    5868    5871    5867    5865    5868    5869
    5867    5865    5868    5870    5867    5865    5868    5871
    5869    5868    5871    5872    5870    5868    5871    5872
    5873    5877    5878    5879    5873    5877    5878    5880
    5873    5877    5878    5881    5873    5877    5887    5884
    5873    5877    5887    5888    5874    5873    5877    5878
    5874    5873    5877    5887    5875    5873    5877    5878
    5875    5873    5877    5887    5876    5873    5877    5878
    5876    5873    5877    5887    5877    5878    5881    5882
    5877    5878    5881    5883    5877    5878    5881    5884
    5877    5887    5884    5881    5877    5887    5884    5885
    5877    5887    5884    5886    5878    5877    5887    5884
    5878    5877    5887    5888    5878    5881    5884    5885
    5878    5881    5884    5886    5878    5881    5884    5887
    5879    5878    5877    5887    5879    5878    5881    5882
    5879    5878    5881    5883    5879    5878    5881    5884
    5880    5878    5877    5887    5880    5878    5881    5882
    5880    5878    5881    5883    5880    5878    5881    5884
    5881    5878    5877    5887    5881    5884    5887    5888
    5882    5881    5884    5885    5882    5881    5884    5886
    5882    5881    5884    5887    5883    5881    5884    5885
    5883    5881    5884    5886    5883    5881    5884    5887
    5885    5884    5887    5888    5886    5884    5887    5888
    5889    5893    5894    5895    5889    5893    5894    5896
    5889    5893    5894    5897    5889    5893    5903    5900
    5889    5893    5903    5904    5890    5889    5893    5894
    5890    5889    5893    5903    5891    5889    5893    5894
    5891    5889    5893    5903    5892    5889    5893    5894
    5892    5889    5893    5903    5893    5894    5897    5898
    5893    5894    5897    5899    5893    5894    5897    5900
    5893    5903    5900    5897    5893    5903    5900    5901
    5893    5903    5900    5902    5894    5893    5903    5900
    5894    5893    5903    5904    5894    5897    5900    5901
    5894    5897    5900    5902    5894    5897    5900    5903
    5895    5894    5893    5903    5895    5894    5897    5898
    5895    5894    5897    5899    5895    5894    5897    5900
    5896    5894    5893    5903    5896    5894    5897    5898
    5896    5894    5897    5899    5896    5894    5897    5900
    5897    5894    5893    5903    5897    5900    5903    5904
    5898    5897    5900    5901    5898    5897    5900    5902
    5898    5897    5900    5903    5899    5897    5900    5901
    5899    5897    5900    5902    5899    5897    5900    5903
    5901    5900    5903    5904    5902    5900    5903    5904
    5905    5909    5910    5911    5905    5909    5910    5912
    5905    5909    5910    5913    5905    5909    5919    5916
    5905    5909    5919    5920    5906    5905    5909    5910
    5906    5905    5909    5919    5907    5905    5909    5910
    5907    5905    5909    5919    5908    5905    5909    5910
    5908    5905    5909    5919    5909    5910    5913    5914
    5909    5910    5913    5915    5909    5910    5913    5916
    5909    5919    5916    5913    5909    5919    5916    5917
    5909    5919    5916    5918    5910    5909    5919    5916
    5910    5909    5919    5920    5910    5913    5916    5917
    5910    5913    5916    5918    5910    5913    5916    5919
    5911    5910    5909    5919    5911    5910    5913    5914
    5911    5910    5913    5915    5911    5910    5913    5916
    5912    5910    5909    5919    5912    5910    5913    5914
    5912    5910    5913    5915    5912    5910    5913    5916
    5913    5910    5909    5919    5913    5916    5919    5920
    5914    5913    5916    5917    5914    5913    5916    5918
    5914    5913    5916    5919    5915    5913    5916    5917
    5915    5913    5916    5918    5915    5913    5916    5919
    5917    5916    5919    5920    5918    5916    5919    5920
    5921    5925    5926    5927    5921    5925    5926    5928
    5921    5925    5926    5929    5921    5925    5935    5932
    5921    5925    5935    5936    5922    5921    5925    5926
    5922    5921    5925    5935    5923    5921    5925    5926
    5923    5921    5925    5935    5924    5921    5925    5926
    5924    5921    5925    5935    5925    5926    5929    5930
    5925    5926    5929    5931    5925    5926    5929    5932
    5925    5935    5932    5929    5925    5935    5932    5933
    5925    5935    5932    5934    5926    5925    5935    5932
    5926    5925    5935    5936    5926    5929    5932    5933
    5926    5929    5932    5934    5926    5929    5932    5935
    5927    5926    5925    5935    5927    5926    5929    5930
    5927    5926    5929    5931    5927    5926    5929    5932
    5928    5926    5925    5935    5928    5926    5929    5930
    5928    5926    5929    5931    5928    5926    5929    5932
    5929    5926    5925    5935    5929    5932    5935    5936
    5930    5929    5932    5933    5930    5929    5932    5934
    5930    5929    5932    5935    5931    5929    5932    5933
    5931    5929    5932    5934    5931    5929    5932    5935
    5933    5932    5935    5936    5934    5932    5935    5936
    5937    5941    5942    5943    5937    5941    5942    5944
    5937    5941    5942    5945    5937    5941    5951    5948
    5937    5941    5951    5952    5938    5937    5941    5942
    5938    5937    5941    5951    5939    5937    5941    5942
    5939    5937    5941    5951    5940    5937    5941    5942
    5940    5937    5941    5951    5941    5942    5945    5946
    5941    5942    5945    5947    5941    5942    5945    5948
    5941    5951    5948    5945    5941    5951    5948    5949
    5941    5951    5948    5950    5942    5941    5951    5948
    5942    5941    5951    5952    5942    5945    5948    5949
    5942    5945    5948    5950    5942    5945    5948    5951
    5943    5942    5941    5951    5943    5942    5945    5946
    5943    5942    5945    5947    5943    5942    5945    5948
    5944    5942    5941    5951    5944    5942    5945    5946
    5944    5942    5945    5947    5944    5942    5945    5948
    5945    5942    5941    5951    5945    5948    5951    5952
    5946    5945    5948    5949    5946    5945    5948    5950
    5946    5945    5948    5951    5947    5945    5948    5949
    5947    5945    5948    5950    5947    5945    5948    5951
    5949    5948    5951    5952    5950    5948    5951    5952
    5953    5957    5958    5959    5953    5957    5958    5960
    5953    5957    5958    5961    5953    5957    5967    5964
    5953    5957    5967    5968    5954    5953    5957    5958
    5954    5953    5957    5967    5955    5953    5957    5958
    5955    5953    5957    5967    5956    5953    5957    5958
    5956    5953    5957    5967    5957    5958    5961    5962
    5957    5958    5961    5963    5957    5958    5961    5964
    5957    5967    5964    5961    5957    5967    5964    5965
    5957    5967    5964    5966    5958    5957    5967    5964
    5958    5957    5967    5968    5958    5961    5964    5965
    5958    5961    5964    5966    5958    5961    5964    5967
    5959    5958    5957    5967    5959    5958    5961    5962
    5959    5958    5961    5963    5959    5958    5961    5964
    5960    5958    5957    5967    5960    5958    5961    5962
    5960    5958    5961    5963    5960    5958    5961    5964
    5961    5958    5957    5967    5961    5964    5967    5968
    5962    5961    5964    5965    5962    5961    5964    5966
    5962    5961    5964    5967    5963    5961    5964    5965
    5963    5961    5964    5966    5963    5961    5964    5967
    5965    5964    5967    5968    5966    5964    5967    5968
    5969    5973    5974    5975    5969    5973    5974    5976
    5969    5973    5974    5977    5969    5973    5983    5980
    5969    5973    5983    5984    5970    5969    5973    5974
    5970    5969    5973    5983    5971    5969    5973    5974
    5971    5969    5973    5983    5972    5969    5973    5974
    5972    5969    5973    5983    5973    5974    5977    5978
    5973    5974    5977    5979    5973    5974    5977    5980
    5973    5983    5980    5977    5973    5983    5980    5981
    5973    5983    5980    5982    5974    5973    5983    5980
    5974    5973    5983    5984    5974    5977    5980    5981
    5974    5977    5980    5982    5974    5977    5980    5983
    5975    5974    5973    5983    5975    5974    5977    5978
    5975    5974    5977    5979    5975    5974    5977    5980
    5976    5974    5973    5983    5976    5974    5977    5978
    5976    5974    5977    5979    5976    5974    5977    5980
    5977    5974    5973    5983    5977    5980    5983    5984
    5978    5977    5980    5981    5978    5977    5980    5982
    5978    5977    5980    5983    5979    5977    5980    5981
    5979    5977    5980    5982    5979    5977    5980    5983
    5981    5980    5983    5984    5982    5980    5983    5984
    5985    5989    5990    5991    5985    5989    5990    5992
    5985    5989    5990    5993    5985    5989    5999    5996
    5985    5989    5999    6000    5986    5985    5989    5990
    5986    5985    5989    5999    5987    5985    5989    5990
    5987    5985    5989    5999    5988    5985    5989    5990
    5988    5985    5989    5999    5989    5990    5993    5994
    5989    5990    5993    5995    5989    5990    5993    5996
    5989    5999    5996    5993    5989    5999    5996    5997
    5989    5999    5996    5998    5990    5989    5999    5996
    5990    5989    5999    6000    5990    5993    5996    5997
    5990    5993    5996    5998    5990    5993    5996    5999
    5991    5990    5989    5999    5991    5990    5993    5994
    5991    5990    5993    5995    5991    5990    5993    5996
    5992    5990    5989    5999    5992    5990    5993    5994
    5992    5990    5993    5995    5992    5990    5993    5996
    5993    5990    5989    5999    5993    5996    5999    6000
    5994    5993    5996    5997    5994    5993    5996    5998
    5994    5993    5996    5999    5995    5993    5996    5997
    5995    5993    5996    5998    5995    5993    5996    5999
    5997    5996    5999    6000    5998    5996    5999    6000
    6001    6005    6006    6007    6001    6005    6006    6008
    6001    6005    6006    6009    6001    6005    6015    6012
    6001    6005    6015    6016    6002    6001    6005    6006
    6002    6001    6005    6015    6003    6001    6005    6006
    6003    6001    6005    6015    6004    6001    6005    6006
    6004    6001    6005    6015    6005    6006    6009    6010
    6005    6006    6009    6011    6005    6006    6009    6012
    6005    6015    6012    6009    6005    6015    6012    6013
    6005    6015    6012    6014    6006    6005    6015    6012
    6006    6005    6015    6016    6006    6009    6012    6013
    6006    6009    6012    6014    6006    6009    6012    6015
    6007    6006    6005    6015    6007    6006    6009    6010
    6007    6006    6009    6011    6007    6006    6009    6012
    6008    6006    6005    6015    6008    6006    6009    6010
    6008    6006    6009    6011    6008    6006    6009    6012
    6009    6006    6005    6015    6009    6012    6015    6016
    6010    6009    6012    6013    6010    6009    6012    6014
    6010    6009    6012    6015    6011    6009    6012    6013
    6011    6009    6012    6014    6011    6009    6012    6015
    6013    6012    6015    6016    6014    6012    6015    6016
    6017    6021    6022    6023    6017    6021    6022    6024
    6017    6021    6022    6025    6017    6021    6031    6028
    6017    6021    6031    6032    6018    6017    6021    6022
    6018    6017    6021    6031    6019    6017    6021    6022
    6019    6017    6021    6031    6020    6017    6021    6022
    6020    6017    6021    6031    6021    6022    6025    6026
    6021    6022    6025    6027    6021    6022    6025    6028
    6021    6031    6028    6025    6021    6031    6028    6029
    6021    6031    6028    6030    6022    6021    6031    6028
    6022    6021    6031    6032    6022    6025    6028    6029
    6022    6025    6028    6030    6022    6025    6028    6031
    6023    6022    6021    6031    6023    6022    6025    6026
    6023    6022    6025    6027    6023    6022    6025    6028
    6024    6022    6021    6031    6024    6022    6025    6026
    6024    6022    6025    6027    6024    6022    6025    6028
    6025    6022    6021    6031    6025    6028    6031    6032
    6026    6025    6028    6029    6026    6025    6028    6030
    6026    6025    6028    6031    6027    6025    6028    6029
    6027    6025    6028    6030    6027    6025    6028    6031
    6029    6028    6031    6032    6030    6028    6031    6032
    6033    6037    6038    6039    6033    6037    6038    6040
    6033    6037    6038    6041    6033    6037    6047    6044
    6033    6037    6047    6048    6034    6033    6037    6038
    6034    6033    6037    6047    6035    6033    6037    6038
    6035    6033    6037    6047    6036    6033    6037    6038
    6036    6033    6037    6047    6037    6038    6041    6042
    6037    6038    6041    6043    6037    6038    6041    6044
    6037    6047    6044    6041    6037    6047    6044    6045
    6037    6047    6044    6046    6038    6037    6047    6044
    6038    6037    6047    6048    6038    6041    6044    6045
    6038    6041    6044    6046    6038    6041    6044    6047
    6039    6038    6037    6047    6039    6038    6041    6042
    6039    6038    6041    6043    6039    6038    6041    6044
    6040    6038    6037    6047    6040    6038    6041    6042
    6040    6038    6041    6043    6040    6038    6041    6044
    6041    6038    6037    6047    6041    6044    6047    6048
    6042    6041    6044    6045    6042    6041    6044    6046
    6042    6041    6044    6047    6043    6041    6044    6045
    6043    6041    6044    6046    6043    6041    6044    6047
    6045    6044    6047    6048    6046    6044    6047    6048
    6049    6053    6054    6055    6049    6053    6054    6056
    6049    6053    6054    6057    6049    6053    6063    6060
    6049    6053    6063    6064    6050    6049    6053    6054
    6050    6049    6053    6063    6051    6049    6053    6054
    6051    6049    6053    6063    6052    6049    6053    6054
    6052    6049    6053    6063    6053    6054    6057    6058
    6053    6054    6057    6059    6053    6054    6057    6060
    6053    6063    6060    6057    6053    6063    6060    6061
    6053    6063    6060    6062    6054    6053    6063    6060
    6054    6053    6063    6064    6054    6057    6060    6061
    6054    6057    6060    6062    6054    6057    6060    6063
    6055    6054    6053    6063    6055    6054    6057    6058
    6055    6054    6057    6059    6055    6054    6057    6060
    6056    6054    6053    6063    6056    6054    6057    6058
    6056    6054    6057    6059    6056    6054    6057    6060
    6057    6054    6053    6063    6057    6060    6063    6064
    6058    6057    6060    6061    6058    6057    6060    6062
    6058    6057    6060    6063    6059    6057    6060    6061
    6059    6057    6060    6062    6059    6057    6060    6063
    6061    6060    6063    6064    6062    6060    6063    6064
    6065    6069    6070    6071    6065    6069    6070    6072
    6065    6069    6070    6073    6065    6069    6079    6076
    6065    6069    6079    6080    6066    6065    6069    6070
    6066    6065    6069    6079    6067    6065    6069    6070
    6067    6065    6069    6079    6068    6065    6069    6070
    6068    6065    6069    6079    6069    6070    6073    6074
    6069    6070    6073    6075    6069    6070    6073    6076
    6069    6079    6076    6073    6069    6079    6076    6077
    6069    6079    6076    6078    6070    6069    6079    6076
    6070    6069    6079    6080    6070    6073    6076    6077
    6070    6073    6076    6078    6070    6073    6076    6079
    6071    6070    6069    6079    6071    6070    6073    6074
    6071    6070    6073    6075    6071    6070    6073    6076
    6072    6070    6069    6079    6072    6070    6073    6074
    6072    6070    6073    6075    6072    6070    6073    6076
    6073    6070    6069    6079    6073    6076    6079    6080
    6074    6073    6076    6077    6074    6073    6076    6078
    6074    6073    6076    6079    6075    6073    6076    6077
    6075    6073    6076    6078    6075    6073    6076    6079
    6077    6076    6079    6080    6078    6076    6079    6080
    6081    6085    6086    6087    6081    6085    6086    6088
    6081    6085    6086    6089    6081    6085    6095    6092
    6081    6085    6095    6096    6082    6081    6085    6086
    6082    6081    6085    6095    6083    6081    6085    6086
    6083    6081    6085    6095    6084    6081    6085    6086
    6084    6081    6085    6095    6085    6086    6089    6090
    6085    6086    6089    6091    6085    6086    6089    6092
    6085    6095    6092    6089    6085    6095    6092    6093
    6085    6095    6092    6094    6086    6085    6095    6092
    6086    6085    6095    6096    6086    6089    6092    6093
    6086    6089    6092    6094    6086    6089    6092    6095
    6087    6086    6085    6095    6087    6086    6089    6090
    6087    6086    6089    6091    6087    6086    6089    6092
    6088    6086    6085    6095    6088    6086    6089    6090
    6088    6086    6089    6091    6088    6086    6089    6092
    6089    6086    6085    6095    6089    6092    6095    6096
    6090    6089    6092    6093    6090    6089    6092    6094
    6090    6089    6092    6095    6091    6089    6092    6093
    6091    6089    6092    6094    6091    6089    6092    6095
    6093    6092    6095    6096    6094    6092    6095    6096
    6097    6101    6102    6103    6097    6101    6102    6104
    6097    6101    6102    6105    6097    6101    6111    6108
    6097    6101    6111    6112    6098    6097    6101    6102
    6098    6097    6101    6111    6099    6097    6101    6102
    6099    6097    6101    6111    6100    6097    6101    6102
    6100    6097    6101    6111    6101    6102    6105    6106
    6101    6102    6105    6107    6101    6102    6105    6108
    6101    6111    6108    6105    6101    6111    6108    6109
    6101    6111    6108    6110    6102    6101    6111    6108
    6102    6101    6111    6112    6102    6105    6108    6109
    6102    6105    6108    6110    6102    6105    6108    6111
    6103    6102    6101    6111    6103    6102    6105    6106
    6103    6102    6105    6107    6103    6102    6105    6108
    6104    6102    6101    6111    6104    6102    6105    6106
    6104    6102    6105    6107    6104    6102    6105    6108
    6105    6102    6101    6111    6105    6108    6111    6112
    6106    6105    6108    6109    6106    6105    6108    6110
    6106    6105    6108    6111    6107    6105    6108    6109
    6107    6105    6108    6110    6107    6105    6108    6111
    6109    6108    6111    6112    6110    6108    6111    6112
    6113    6117    6118    6119    6113    6117    6118    6120
    6113    6117    6118    6121    6113    6117    6127    6124
    6113    6117    6127    6128    6114    6113    6117    6118
    6114    6113    6117    6127    6115    6113    6117    6118
    6115    6113    6117    6127    6116    6113    6117    6118
    6116    6113    6117    6127    6117    6118    6121    6122
    6117    6118    6121    6123    6117    6118    6121    6124
    6117    6127    6124    6121    6117    6127    6124    6125
    6117    6127    6124    6126    6118    6117    6127    6124
    6118    6117    6127    6128    6118    6121    6124    6125
    6118    6121    6124    6126    6118    6121    6124    6127
    6119    6118    6117    6127    6119    6118    6121    6122
    6119    6118    6121    6123    6119    6118    6121    6124
    6120    6118    6117    6127    6120    6118    6121    6122
    6120    6118    6121    6123    6120    6118    6121    6124
    6121    6118    6117    6127    6121    6124    6127    6128
    6122    6121    6124    6125    6122    6121    6124    6126
    6122    6121    6124    6127    6123    6121    6124    6125
    6123    6121    6124    6126    6123    6121    6124    6127
    6125    6124    6127    6128    6126    6124    6127    6128
    6129    6133    6134    6135    6129    6133    6134    6136
    6129    6133    6134    6137    6129    6133    6143    6140
    6129    6133    6143    6144    6130    6129    6133    6134
    6130    6129    6133    6143    6131    6129    6133    6134
    6131    6129    6133    6143    6132    6129    6133    6134
    6132    6129    6133    6143    6133    6134    6137    6138
    6133    6134    6137    6139    6133    6134    6137    6140
    6133    6143    6140    6137    6133    6143    6140    6141
    6133    6143    6140    6142    6134    6133    6143    6140
    6134    6133    6143    6144    6134    6137    6140    6141
    6134    6137    6140    6142    6134    6137    6140    6143
    6135    6134    6133    6143    6135    6134    6137    6138
    6135    6134    6137    6139    6135    6134    6137    6140
    6136    6134    6133    6143    6136    6134    6137    6138
    6136    6134    6137    6139    6136    6134    6137    6140
    6137    6134    6133    6143    6137    6140    6143    6144
    6138    6137    6140    6141    6138    6137    6140    6142
    6138    6137    6140    6143    6139    6137    6140    6141
    6139    6137    6140    6142    6139    6137    6140    6143
    6141    6140    6143    6144    6142    6140    6143    6144
    6145    6149    6150    6151    6145    6149    6150    6152
    6145    6149    6150    6153    6145    6149    6159    6156
    6145    6149    6159    6160    6146    6145    6149    6150
    6146    6145    6149    6159    6147    6145    6149    6150
    6147    6145    6149    6159    6148    6145    6149    6150
    6148    6145    6149    6159    6149    6150    6153    6154
    6149    6150    6153    6155    6149    6150    6153    6156
    6149    6159    6156    6153    6149    6159    6156    6157
    6149    6159    6156    6158    6150    6149    6159    6156
    6150    6149    6159    6160    6150    6153    6156    6157
    6150    6153    6156    6158    6150    6153    6156    6159
    6151    6150    6149    6159    6151    6150    6153    6154
    6151    6150    6153    6155    6151    6150    6153    6156
    6152    6150    6149    6159    6152    6150    6153    6154
    6152    6150    6153    6155    6152    6150    6153    6156
    6153    6150    6149    6159    6153    6156    6159    6160
    6154    6153    6156    6157    6154    6153    6156    6158
    6154    6153    6156    6159    6155    6153    6156    6157
    6155    6153    6156    6158    6155    6153    6156    6159
    6157    6156    6159    6160    6158    6156    6159    6160
    6161    6165    6166    6167    6161    6165    6166    6168
    6161    6165    6166    6169    6161    6165    6175    6172
    6161    6165    6175    6176    6162    6161    6165    6166
    6162    6161    6165    6175    6163    6161    6165    6166
    6163    6161    6165    6175    6164    6161    6165    6166
    6164    6161    6165    6175    6165    6166    6169    6170
    6165    6166    6169    6171    6165    6166    6169    6172
    6165    6175    6172    6169    6165    6175    6172    6173
    6165    6175    6172    6174    6166    6165    6175    6172
    6166    6165    6175    6176    6166    6169    6172    6173
    6166    6169    6172    6174    6166    6169    6172    6175
    6167    6166    6165    6175    6167    6166    6169    6170
    6167    6166    6169    6171    6167    6166    6169    6172
    6168    6166    6165    6175    6168    6166    6169    6170
    6168    6166    6169    6171    6168    6166    6169    6172
    6169    6166    6165    6175    6169    6172    6175    6176
    6170    6169    6172    6173    6170    6169    6172    6174
    6170    6169    6172    6175    6171    6169    6172    6173
    6171    6169    6172    6174    6171    6169    6172    6175
    6173    6172    6175    6176    6174    6172    6175    6176
    6177    6181    6182    6183    6177    6181    6182    6184
    6177    6181    6182    6185    6177    6181    6191    6188
    6177    6181    6191    6192    6178    6177    6181    6182
    6178    6177    6181    6191    6179    6177    6181    6182
    6179    6177    6181    6191    6180    6177    6181    6182
    6180    6177    6181    6191    6181    6182    6185    6186
    6181    6182    6185    6187    6181    6182    6185    6188
    6181    6191    6188    6185    6181    6191    6188    6189
    6181    6191    6188    6190    6182    6181    6191    6188
    6182    6181    6191    6192    6182    6185    6188    6189
    6182    6185    6188    6190    6182    6185    6188    6191
    6183    6182    6181    6191    6183    6182    6185    6186
    6183    6182    6185    6187    6183    6182    6185    6188
    6184    6182    6181    6191    6184    6182    6185    6186
    6184    6182    6185    6187    6184    6182    6185    6188
    6185    6182    6181    6191    6185    6188    6191    6192
    6186    6185    6188    6189    6186    6185    6188    6190
    6186    6185    6188    6191    6187    6185    6188    6189
    6187    6185    6188    6190    6187    6185    6188    6191
    6189    6188    6191    6192    6190    6188    6191    6192
    6193    6197    6198    6199    6193    6197    6198    6200
    6193    6197    6198    6201    6193    6197    6207    6204
    6193    6197    6207    6208    6194    6193    6197    6198
    6194    6193    6197    6207    6195    6193    6197    6198
    6195    6193    6197    6207    6196    6193    6197    6198
    6196    6193    6197    6207    6197    6198    6201    6202
    6197    6198    6201    6203    6197    6198    6201    6204
    6197    6207    6204    6201    6197    6207    6204    6205
    6197    6207    6204    6206    6198    6197    6207    6204
    6198    6197    6207    6208    6198    6201    6204    6205
    6198    6201    6204    6206    6198    6201    6204    6207
    6199    6198    6197    6207    6199    6198    6201    6202
    6199    6198    6201    6203    6199    6198    6201    6204
    6200    6198    6197    6207    6200    6198    6201    6202
    6200    6198    6201    6203    6200    6198    6201    6204
    6201    6198    6197    6207    6201    6204    6207    6208
    6202    6201    6204    6205    6202    6201    6204    6206
    6202    6201    6204    6207    6203    6201    6204    6205
    6203    6201    6204    6206    6203    6201    6204    6207
    6205    6204    6207    6208    6206    6204    6207    6208
    6209    6213    6214    6215    6209    6213    6214    6216
    6209    6213    6214    6217    6209    6213    6223    6220
    6209    6213    6223    6224    6210    6209    6213    6214
    6210    6209    6213    6223    6211    6209    6213    6214
    6211    6209    6213    6223    6212    6209    6213    6214
    6212    6209    6213    6223    6213    6214    6217    6218
    6213    6214    6217    6219    6213    6214    6217    6220
    6213    6223    6220    6217    6213    6223    6220    6221
    6213    6223    6220    6222    6214    6213    6223    6220
    6214    6213    6223    6224    6214    6217    6220    6221
    6214    6217    6220    6222    6214    6217    6220    6223
    6215    6214    6213    6223    6215    6214    6217    6218
    6215    6214    6217    6219    6215    6214    6217    6220
    6216    6214    6213    6223    6216    6214    6217    6218
    6216    6214    6217    6219    6216    6214    6217    6220
    6217    6214    6213    6223    6217    6220    6223    6224
    6218    6217    6220    6221    6218    6217    6220    6222
    6218    6217    6220    6223    6219    6217    6220    6221
    6219    6217    6220    6222    6219    6217    6220    6223
    6221    6220    6223    6224    6222    6220    6223    6224
    6225    6229    6230    6231    6225    6229    6230    6232
    6225    6229    6230    6233    6225    6229    6239    6236
    6225    6229    6239    6240    6226    6225    6229    6230
    6226    6225    6229    6239    6227    6225    6229    6230
    6227    6225    6229    6239    6228    6225    6229    6230
    6228    6225    6229    6239    6229    6230    6233    6234
    6229    6230    6233    6235    6229    6230    6233    6236
    6229    6239    6236    6233    6229    6239    6236    6237
    6229    6239    6236    6238    6230    6229    6239    6236
    6230    6229    6239    6240    6230    6233    6236    6237
    6230    6233    6236    6238    6230    6233    6236    6239
    6231    6230    6229    6239    6231    6230    6233    6234
    6231    6230    6233    6235    6231    6230    6233    6236
    6232    6230    6229    6239    6232    6230    6233    6234
    6232    6230    6233    6235    6232    6230    6233    6236
    6233    6230    6229    6239    6233    6236    6239    6240
    6234    6233    6236    6237    6234    6233    6236    6238
    6234    6233    6236    6239    6235    6233    6236    6237
    6235    6233    6236    6238    6235    6233    6236    6239
    6237    6236    6239    6240    6238    6236    6239    6240
    6241    6245    6246    6247    6241    6245    6246    6248
    6241    6245    6246    6249    6241    6245    6255    6252
    6241    6245    6255    6256    6242    6241    6245    6246
    6242    6241    6245    6255    6243    6241    6245    6246
    6243    6241    6245    6255    6244    6241    6245    6246
    6244    6241    6245    6255    6245    6246    6249    6250
    6245    6246    6249    6251    6245    6246    6249    6252
    6245    6255    6252    6249    6245    6255    6252    6253
    6245    6255    6252    6254    6246    6245    6255    6252
    6246    6245    6255    6256    6246    6249    6252    6253
    6246    6249    6252    6254    6246    6249    6252    6255
    6247    6246    6245    6255    6247    6246    6249    6250
    6247    6246    6249    6251    6247    6246    6249    6252
    6248    6246    6245    6255    6248    6246    6249    6250
    6248    6246    6249    6251    6248    6246    6249    6252
    6249    6246    6245    6255    6249    6252    6255    6256
    6250    6249    6252    6253    6250    6249    6252    6254
    6250    6249    6252    6255    6251    6249    6252    6253
    6251    6249    6252    6254    6251    6249    6252    6255
    6253    6252    6255    6256    6254    6252    6255    6256
    6257    6261    6262    6263    6257    6261    6262    6264
    6257    6261    6262    6265    6257    6261    6271    6268
    6257    6261    6271    6272    6258    6257    6261    6262
    6258    6257    6261    6271    6259    6257    6261    6262
    6259    6257    6261    6271    6260    6257    6261    6262
    6260    6257    6261    6271    6261    6262    6265    6266
    6261    6262    6265    6267    6261    6262    6265    6268
    6261    6271    6268    6265    6261    6271    6268    6269
    6261    6271    6268    6270    6262    6261    6271    6268
    6262    6261    6271    6272    6262    6265    6268    6269
    6262    6265    6268    6270    6262    6265    6268    6271
    6263    6262    6261    6271    6263    6262    6265    6266
    6263    6262    6265    6267    6263    6262    6265    6268
    6264    6262    6261    6271    6264    6262    6265    6266
    6264    6262    6265    6267    6264    6262    6265    6268
    6265    6262    6261    6271    6265    6268    6271    6272
    6266    6265    6268    6269    6266    6265    6268    6270
    6266    6265    6268    6271    6267    6265    6268    6269
    6267    6265    6268    6270    6267    6265    6268    6271
    6269    6268    6271    6272    6270    6268    6271    6272
    6273    6277    6278    6279    6273    6277    6278    6280
    6273    6277    6278    6281    6273    6277    6287    6284
    6273    6277    6287    6288    6274    6273    6277    6278
    6274    6273    6277    6287    6275    6273    6277    6278
    6275    6273    6277    6287    6276    6273    6277    6278
    6276    6273    6277    6287    6277    6278    6281    6282
    6277    6278    6281    6283    6277    6278    6281    6284
    6277    6287    6284    6281    6277    6287    6284    6285
    6277    6287    6284    6286    6278    6277    6287    6284
    6278    6277    6287    6288    6278    6281    6284    6285
    6278    6281    6284    6286    6278    6281    6284    6287
    6279    6278    6277    6287    6279    6278    6281    6282
    6279    6278    6281    6283    6279    6278    6281    6284
    6280    6278    6277    6287    6280    6278    6281    6282
    6280    6278    6281    6283    6280    6278    6281    6284
    6281    6278    6277    6287    6281    6284    6287    6288
    6282    6281    6284    6285    6282    6281    6284    6286
    6282    6281    6284    6287    6283    6281    6284    6285
    6283    6281    6284    6286    6283    6281    6284    6287
    6285    6284    6287    6288    6286    6284    6287    6288
    6289    6293    6294    6295    6289    6293    6294    6296
    6289    6293    6294    6297    6289    6293    6303    6300
    6289    6293    6303    6304    6290    6289    6293    6294
    6290    6289    6293    6303    6291    6289    6293    6294
    6291    6289    6293    6303    6292    6289    6293    6294
    6292    6289    6293    6303    6293    6294    6297    6298
    6293    6294    6297    6299    6293    6294    6297    6300
    6293    6303    6300    6297    6293    6303    6300    6301
    6293    6303    6300    6302    6294    6293    6303    6300
    6294    6293    6303    6304    6294    6297    6300    6301
    6294    6297    6300    6302    6294    6297    6300    6303
    6295    6294    6293    6303    6295    6294    6297    6298
    6295    6294    6297    6299    6295    6294    6297    6300
    6296    6294    6293    6303    6296    6294    6297    6298
    6296    6294    6297    6299    6296    6294    6297    6300
    6297    6294    6293    6303    6297    6300    6303    6304
    6298    6297    6300    6301    6298    6297    6300    6302
    6298    6297    6300    6303    6299    6297    6300    6301
    6299    6297    6300    6302    6299    6297    6300    6303
    6301    6300    6303    6304    6302    6300    6303    6304
    6305    6309    6310    6311    6305    6309    6310    6312
    6305    6309    6310    6313    6305    6309    6319    6316
    6305    6309    6319    6320    6306    6305    6309    6310
    6306    6305    6309    6319    6307    6305    6309    6310
    6307    6305    6309    6319    6308    6305    6309    6310
    6308    6305    6309    6319    6309    6310    6313    6314
    6309    6310    6313    6315    6309    6310    6313    6316
    6309    6319    6316    6313    6309    6319    6316    6317
    6309    6319    6316    6318    6310    6309    6319    6316
    6310    6309    6319    6320    6310    6313    6316    6317
    6310    6313    6316    6318    6310    6313    6316    6319
    6311    6310    6309    6319    6311    6310    6313    6314
    6311    6310    6313    6315    6311    6310    6313    6316
    6312    6310    6309    6319    6312    6310    6313    6314
    6312    6310    6313    6315    6312    6310    6313    6316
    6313    6310    6309    6319    6313    6316    6319    6320
    6314    6313    6316    6317    6314    6313    6316    6318
    6314    6313    6316    6319    6315    6313    6316    6317
    6315    6313    6316    6318    6315    6313    6316    6319
    6317    6316    6319    6320    6318    6316    6319    6320
    6321    6325    6326    6327    6321    6325    6326    6328
    6321    6325    6326    6329    6321    6325    6335    6332
    6321    6325    6335    6336    6322    6321    6325    6326
    6322    6321    6325    6335    6323    6321    6325    6326
    6323    6321    6325    6335    6324    6321    6325    6326
    6324    6321    6325    6335    6325    6326    6329    6330
    6325    6326    6329    6331    6325    6326    6329    6332
    6325    6335    6332    6329    6325    6335    6332    6333
    6325    6335    6332    6334    6326    6325    6335    6332
    6326    6325    6335    6336    6326    6329    6332    6333
    6326    6329    6332    6334    6326    6329    6332    6335
    6327    6326    6325    6335    6327    6326    6329    6330
    6327    6326    6329    6331    6327    6326    6329    6332
    6328    6326    6325    6335    6328    6326    6329    6330
    6328    6326    6329    6331    6328    6326    6329    6332
    6329    6326    6325    6335    6329    6332    6335    6336
    6330    6329    6332    6333    6330    6329    6332    6334
    6330    6329    6332    6335    6331    6329    6332    6333
    6331    6329    6332    6334    6331    6329    6332    6335
    6333    6332    6335    6336    6334    6332    6335    6336
    6337    6341    6342    6343    6337    6341    6342    6344
    6337    6341    6342    6345    6337    6341    6351    6348
    6337    6341    6351    6352    6338    6337    6341    6342
    6338    6337    6341    6351    6339    6337    6341    6342
    6339    6337    6341    6351    6340    6337    6341    6342
    6340    6337    6341    6351    6341    6342    6345    6346
    6341    6342    6345    6347    6341    6342    6345    6348
    6341    6351    6348    6345    6341    6351    6348    6349
    6341    6351    6348    6350    6342    6341    6351    6348
    6342    6341    6351    6352    6342    6345    6348    6349
    6342    6345    6348    6350    6342    6345    6348    6351
    6343    6342    6341    6351    6343    6342    6345    6346
    6343    6342    6345    6347    6343    6342    6345    6348
    6344    6342    6341    6351    6344    6342    6345    6346
    6344    6342    6345    6347    6344    6342    6345    6348
    6345    6342    6341    6351    6345    6348    6351    6352
    6346    6345    6348    6349    6346    6345    6348    6350
    6346    6345    6348    6351    6347    6345    6348    6349
    6347    6345    6348    6350    6347    6345    6348    6351
    6349    6348    6351    6352    6350    6348    6351    6352
    6353    6357    6358    6359    6353    6357    6358    6360
    6353    6357    6358    6361    6353    6357    6367    6364
    6353    6357    6367    6368    6354    6353    6357    6358
    6354    6353    6357    6367    6355    6353    6357    6358
    6355    6353    6357    6367    6356    6353    6357    6358
    6356    6353    6357    6367    6357    6358    6361    6362
    6357    6358    6361    6363    6357    6358    6361    6364
    6357    6367    6364    6361    6357    6367    6364    6365
    6357    6367    6364    6366    6358    6357    6367    6364
    6358    6357    6367    6368    6358    6361    6364    6365
    6358    6361    6364    6366    6358    6361    6364    6367
    6359    6358    6357    6367    6359    6358    6361    6362
    6359    6358    6361    6363    6359    6358    6361    6364
    6360    6358    6357    6367    6360    6358    6361    6362
    6360    6358    6361    6363    6360    6358    6361    6364
    6361    6358    6357    6367    6361    6364    6367    6368
    6362    6361    6364    6365    6362    6361    6364    6366
    6362    6361    6364    6367    6363    6361    6364    6365
    6363    6361    6364    6366    6363    6361    6364    6367
    6365    6364    6367    6368    6366    6364    6367    6368
    6369    6373    6374    6375    6369    6373    6374    6376
    6369    6373    6374    6377    6369    6373    6383    6380
    6369    6373    6383    6384    6370    6369    6373    6374
    6370    6369    6373    6383    6371    6369    6373    6374
    6371    6369    6373    6383    6372    6369    6373    6374
    6372    6369    6373    6383    6373    6374    6377    6378
    6373    6374    6377    6379    6373    6374    6377    6380
    6373    6383    6380    6377    6373    6383    6380    6381
    6373    6383    6380    6382    6374    6373    6383    6380
    6374    6373    6383    6384    6374    6377    6380    6381
    6374    6377    6380    6382    6374    6377    6380    6383
    6375    6374    6373    6383    6375    6374    6377    6378
    6375    6374    6377    6379    6375    6374    6377    6380
    6376    6374    6373    6383    6376    6374    6377    6378
    6376    6374    6377    6379    6376    6374    6377    6380
    6377    6374    6373    6383    6377    6380    6383    6384
    6378    6377    6380    6381    6378    6377    6380    6382
    6378    6377    6380    6383    6379    6377    6380    6381
    6379    6377    6380    6382    6379    6377    6380    6383
    6381    6380    6383    6384    6382    6380    6383    6384
    6385    6389    6390    6391    6385    6389    6390    6392
    6385    6389    6390    6393    6385    6389    6399    6396
    6385    6389    6399    6400    6386    6385    6389    6390
    6386    6385    6389    6399    6387    6385    6389    6390
    6387    6385    6389    6399    6388    6385    6389    6390
    6388    6385    6389    6399    6389    6390    6393    6394
    6389    6390    6393    6395    6389    6390    6393    6396
    6389    6399    6396    6393    6389    6399    6396    6397
    6389    6399    6396    6398    6390    6389    6399    6396
    6390    6389    6399    6400    6390    6393    6396    6397
    6390    6393    6396    6398    6390    6393    6396    6399
    6391    6390    6389    6399    6391    6390    6393    6394
    6391    6390    6393    6395    6391    6390    6393    6396
    6392    6390    6389    6399    6392    6390    6393    6394
    6392    6390    6393    6395    6392    6390    6393    6396
    6393    6390    6389    6399    6393    6396    6399    6400
    6394    6393    6396    6397    6394    6393    6396    6398
    6394    6393    6396    6399    6395    6393    6396    6397
    6395    6393    6396    6398    6395    6393    6396    6399
    6397    6396    6399    6400    6398    6396    6399    6400
    6401    6405    6406    6407    6401    6405    6406    6408
    6401    6405    6406    6409    6401    6405    6415    6412
    6401    6405    6415    6416    6402    6401    6405    6406
    6402    6401    6405    6415    6403    6401    6405    6406
    6403    6401    6405    6415    6404    6401    6405    6406
    6404    6401    6405    6415    6405    6406    6409    6410
    6405    6406    6409    6411    6405    6406    6409    6412
    6405    6415    6412    6409    6405    6415    6412    6413
    6405    6415    6412    6414    6406    6405    6415    6412
    6406    6405    6415    6416    6406    6409    6412    6413
    6406    6409    6412    6414    6406    6409    6412    6415
    6407    6406    6405    6415    6407    6406    6409    6410
    6407    6406    6409    6411    6407    6406    6409    6412
    6408    6406    6405    6415    6408    6406    6409    6410
    6408    6406    6409    6411    6408    6406    6409    6412
    6409    6406    6405    6415    6409    6412    6415    6416
    6410    6409    6412    6413    6410    6409    6412    6414
    6410    6409    6412    6415    6411    6409    6412    6413
    6411    6409    6412    6414    6411    6409    6412    6415
    6413    6412    6415    6416    6414    6412    6415    6416
    6417    6421    6422    6423    6417    6421    6422    6424
    6417    6421    6422    6425    6417    6421    6431    6428
    6417    6421    6431    6432    6418    6417    6421    6422
    6418    6417    6421    6431    6419    6417    6421    6422
    6419    6417    6421    6431    6420    6417    6421    6422
    6420    6417    6421    6431    6421    6422    6425    6426
    6421    6422    6425    6427    6421    6422    6425    6428
    6421    6431    6428    6425    6421    6431    6428    6429
    6421    6431    6428    6430    6422    6421    6431    6428
    6422    6421    6431    6432    6422    6425    6428    6429
    6422    6425    6428    6430    6422    6425    6428    6431
    6423    6422    6421    6431    6423    6422    6425    6426
    6423    6422    6425    6427    6423    6422    6425    6428
    6424    6422    6421    6431    6424    6422    6425    6426
    6424    6422    6425    6427    6424    6422    6425    6428
    6425    6422    6421    6431    6425    6428    6431    6432
    6426    6425    6428    6429    6426    6425    6428    6430
    6426    6425    6428    6431    6427    6425    6428    6429
    6427    6425    6428    6430    6427    6425    6428    6431
    6429    6428    6431    6432    6430    6428    6431    6432
    6433    6437    6438    6439    6433    6437    6438    6440
    6433    6437    6438    6441    6433    6437    6447    6444
    6433    6437    6447    6448    6434    6433    6437    6438
    6434    6433    6437    6447    6435    6433    6437    6438
    6435    6433    6437    6447    6436    6433    6437    6438
    6436    6433    6437    6447    6437    6438    6441    6442
    6437    6438    6441    6443    6437    6438    6441    6444
    6437    6447    6444    6441    6437    6447    6444    6445
    6437    6447    6444    6446    6438    6437    6447    6444
    6438    6437    6447    6448    6438    6441    6444    6445
    6438    6441    6444    6446    6438    6441    6444    6447
    6439    6438    6437    6447    6439    6438    6441    6442
    6439    6438    6441    6443    6439    6438    6441    6444
    6440    6438    6437    6447    6440    6438    6441    6442
    6440    6438    6441    6443    6440    6438    6441    6444
    6441    6438    6437    6447    6441    6444    6447    6448
    6442    6441    6444    6445    6442    6441    6444    6446
    6442    6441    6444    6447    6443    6441    6444    6445
    6443    6441    6444    6446    6443    6441    6444    6447
    6445    6444    6447    6448    6446    6444    6447    6448
    6449    6453    6454    6455    6449    6453    6454    6456
    6449    6453    6454    6457    6449    6453    6463    6460
    6449    6453    6463    6464    6450    6449    6453    6454
    6450    6449    6453    6463    6451    6449    6453    6454
    6451    6449    6453    6463    6452    6449    6453    6454
    6452    6449    6453    6463    6453    6454    6457    6458
    6453    6454    6457    6459    6453    6454    6457    6460
    6453    6463    6460    6457    6453    6463    6460    6461
    6453    6463    6460    6462    6454    6453    6463    6460
    6454    6453    6463    6464    6454    6457    6460    6461
    6454    6457    6460    6462    6454    6457    6460    6463
    6455    6454    6453    6463    6455    6454    6457    6458
    6455    6454    6457    6459    6455    6454    6457    6460
    6456    6454    6453    6463    6456    6454    6457    6458
    6456    6454    6457    6459    6456    6454    6457    6460
    6457    6454    6453    6463    6457    6460    6463    6464
    6458    6457    6460    6461    6458    6457    6460    6462
    6458    6457    6460    6463    6459    6457    6460    6461
    6459    6457    6460    6462    6459    6457    6460    6463
    6461    6460    6463    6464    6462    6460    6463    6464
    6465    6469    6470    6471    6465    6469    6470    6472
    6465    6469    6470    6473    6465    6469    6479    6476
    6465    6469    6479    6480    6466    6465    6469    6470
    6466    6465    6469    6479    6467    6465    6469    6470
    6467    6465    6469    6479    6468    6465    6469    6470
    6468    6465    6469    6479    6469    6470    6473    6474
    6469    6470    6473    6475    6469    6470    6473    6476
    6469    6479    6476    6473    6469    6479    6476    6477
    6469    6479    6476    6478    6470    6469    6479    6476
    6470    6469    6479    6480    6470    6473    6476    6477
    6470    6473    6476    6478    6470    6473    6476    6479
    6471    6470    6469    6479    6471    6470    6473    6474
    6471    6470    6473    6475    6471    6470    6473    6476
    6472    6470    6469    6479    6472    6470    6473    6474
    6472    6470    6473    6475    6472    6470    6473    6476
    6473    6470    6469    6479    6473    6476    6479    6480
    6474    6473    6476    6477    6474    6473    6476    6478
    6474    6473    6476    6479    6475    6473    6476    6477
    6475    6473    6476    6478    6475    6473    6476    6479
    6477    6476    6479    6480    6478    6476    6479    6480
    6481    6485    6486    6487    6481    6485    6486    6488
    6481    6485    6486    6489    6481    6485    6495    6492
    6481    6485    6495    6496    6482    6481    6485    6486
    6482    6481    6485    6495    6483    6481    6485    6486
    6483    6481    6485    6495    6484    6481    6485    6486
    6484    6481    6485    6495    6485    6486    6489    6490
    6485    6486    6489    6491    6485    6486    6489    6492
    6485    6495    6492    6489    6485    6495    6492    6493
    6485    6495    6492    6494    6486    6485    6495    6492
    6486    6485    6495    6496    6486    6489    6492    6493
    6486    6489    6492    6494    6486    6489    6492    6495
    6487    6486    6485    6495    6487    6486    6489    6490
    6487    6486    6489    6491    6487    6486    6489    6492
    6488    6486    6485    6495    6488    6486    6489    6490
    6488    6486    6489    6491    6488    6486    6489    6492
    6489    6486    6485    6495    6489    6492    6495    6496
    6490    6489    6492    6493    6490    6489    6492    6494
    6490    6489    6492    6495    6491    6489    6492    6493
    6491    6489    6492    6494    6491    6489    6492    6495
    6493    6492    6495    6496    6494    6492    6495    6496
    6497    6501    6502    6503    6497    6501    6502    6504
    6497    6501    6502    6505    6497    6501    6511    6508
    6497    6501    6511    6512    6498    6497    6501    6502
    6498    6497    6501    6511    6499    6497    6501    6502
    6499    6497    6501    6511    6500    6497    6501    6502
    6500    6497    6501    6511    6501    6502    6505    6506
    6501    6502    6505    6507    6501    6502    6505    6508
    6501    6511    6508    6505    6501    6511    6508    6509
    6501    6511    6508    6510    6502    6501    6511    6508
    6502    6501    6511    6512    6502    6505    6508    6509
    6502    6505    6508    6510    6502    6505    6508    6511
    6503    6502    6501    6511    6503    6502    6505    6506
    6503    6502    6505    6507    6503    6502    6505    6508
    6504    6502    6501    6511    6504    6502    6505    6506
    6504    6502    6505    6507    6504    6502    6505    6508
    6505    6502    6501    6511    6505    6508    6511    6512
    6506    6505    6508    6509    6506    6505    6508    6510
    6506    6505    6508    6511    6507    6505    6508    6509
    6507    6505    6508    6510    6507    6505    6508    6511
    6509    6508    6511    6512    6510    6508    6511    6512
    6513    6517    6518    6519    6513    6517    6518    6520
    6513    6517    6518    6521    6513    6517    6527    6524
    6513    6517    6527    6528    6514    6513    6517    6518
    6514    6513    6517    6527    6515    6513    6517    6518
    6515    6513    6517    6527    6516    6513    6517    6518
    6516    6513    6517    6527    6517    6518    6521    6522
    6517    6518    6521    6523    6517    6518    6521    6524
    6517    6527    6524    6521    6517    6527    6524    6525
    6517    6527    6524    6526    6518    6517    6527    6524
    6518    6517    6527    6528    6518    6521    6524    6525
    6518    6521    6524    6526    6518    6521    6524    6527
    6519    6518    6517    6527    6519    6518    6521    6522
    6519    6518    6521    6523    6519    6518    6521    6524
    6520    6518    6517    6527    6520    6518    6521    6522
    6520    6518    6521    6523    6520    6518    6521    6524
    6521    6518    6517    6527    6521    6524    6527    6528
    6522    6521    6524    6525    6522    6521    6524    6526
    6522    6521    6524    6527    6523    6521    6524    6525
    6523    6521    6524    6526    6523    6521    6524    6527
    6525    6524    6527    6528    6526    6524    6527    6528
    6529    6533    6534    6535    6529    6533    6534    6536
    6529    6533    6534    6537    6529    6533    6543    6540
    6529    6533    6543    6544    6530    6529    6533    6534
    6530    6529    6533    6543    6531    6529    6533    6534
    6531    6529    6533    6543    6532    6529    6533    6534
    6532    6529    6533    6543    6533    6534    6537    6538
    6533    6534    6537    6539    6533    6534    6537    6540
    6533    6543    6540    6537    6533    6543    6540    6541
    6533    6543    6540    6542    6534    6533    6543    6540
    6534    6533    6543    6544    6534    6537    6540    6541
    6534    6537    6540    6542    6534    6537    6540    6543
    6535    6534    6533    6543    6535    6534    6537    6538
    6535    6534    6537    6539    6535    6534    6537    6540
    6536    6534    6533    6543    6536    6534    6537    6538
    6536    6534    6537    6539    6536    6534    6537    6540
    6537    6534    6533    6543    6537    6540    6543    6544
    6538    6537    6540    6541    6538    6537    6540    6542
    6538    6537    6540    6543    6539    6537    6540    6541
    6539    6537    6540    6542    6539    6537    6540    6543
    6541    6540    6543    6544    6542    6540    6543    6544
    6545    6549    6550    6551    6545    6549    6550    6552
    6545    6549    6550    6553    6545    6549    6559    6556
    6545    6549    6559    6560    6546    6545    6549    6550
    6546    6545    6549    6559    6547    6545    6549    6550
    6547    6545    6549    6559    6548    6545    6549    6550
    6548    6545    6549    6559    6549    6550    6553    6554
    6549    6550    6553    6555    6549    6550    6553    6556
    6549    6559    6556    6553    6549    6559    6556    6557
    6549    6559    6556    6558    6550    6549    6559    6556
    6550    6549    6559    6560    6550    6553    6556    6557
    6550    6553    6556    6558    6550    6553    6556    6559
    6551    6550    6549    6559    6551    6550    6553    6554
    6551    6550    6553    6555    6551    6550    6553    6556
    6552    6550    6549    6559    6552    6550    6553    6554
    6552    6550    6553    6555    6552    6550    6553    6556
    6553    6550    6549    6559    6553    6556    6559    6560
    6554    6553    6556    6557    6554    6553    6556    6558
    6554    6553    6556    6559    6555    6553    6556    6557
    6555    6553    6556    6558    6555    6553    6556    6559
    6557    6556    6559    6560    6558    6556    6559    6560
    6561    6565    6566    6567    6561    6565    6566    6568
    6561    6565    6566    6569    6561    6565    6575    6572
    6561    6565    6575    6576    6562    6561    6565    6566
    6562    6561    6565    6575    6563    6561    6565    6566
    6563    6561    6565    6575    6564    6561    6565    6566
    6564    6561    6565    6575    6565    6566    6569    6570
    6565    6566    6569    6571    6565    6566    6569    6572
    6565    6575    6572    6569    6565    6575    6572    6573
    6565    6575    6572    6574    6566    6565    6575    6572
    6566    6565    6575    6576    6566    6569    6572    6573
    6566    6569    6572    6574    6566    6569    6572    6575
    6567    6566    6565    6575    6567    6566    6569    6570
    6567    6566    6569    6571    6567    6566    6569    6572
    6568    6566    6565    6575    6568    6566    6569    6570
    6568    6566    6569    6571    6568    6566    6569    6572
    6569    6566    6565    6575    6569    6572    6575    6576
    6570    6569    6572    6573    6570    6569    6572    6574
    6570    6569    6572    6575    6571    6569    6572    6573
    6571    6569    6572    6574    6571    6569    6572    6575
    6573    6572    6575    6576    6574    6572    6575    6576
    6577    6581    6582    6583    6577    6581    6582    6584
    6577    6581    6582    6585    6577    6581    6591    6588
    6577    6581    6591    6592    6578    6577    6581    6582
    6578    6577    6581    6591    6579    6577    6581    6582
    6579    6577    6581    6591    6580    6577    6581    6582
    6580    6577    6581    6591    6581    6582    6585    6586
    6581    6582    6585    6587    6581    6582    6585    6588
    6581    6591    6588    6585    6581    6591    6588    6589
    6581    6591    6588    6590    6582    6581    6591    6588
    6582    6581    6591    6592    6582    6585    6588    6589
    6582    6585    6588    6590    6582    6585    6588    6591
    6583    6582    6581    6591    6583    6582    6585    6586
    6583    6582    6585    6587    6583    6582    6585    6588
    6584    6582    6581    6591    6584    6582    6585    6586
    6584    6582    6585    6587    6584    6582    6585    6588
    6585    6582    6581    6591    6585    6588    6591    6592
    6586    6585    6588    6589    6586    6585    6588    6590
    6586    6585    6588    6591    6587    6585    6588    6589
    6587    6585    6588    6590    6587    6585    6588    6591
    6589    6588    6591    6592    6590    6588    6591    6592
    6593    6597    6598    6599    6593    6597    6598    6600
    6593    6597    6598    6601    6593    6597    6607    6604
    6593    6597    6607    6608    6594    6593    6597    6598
    6594    6593    6597    6607    6595    6593    6597    6598
    6595    6593    6597    6607    6596    6593    6597    6598
    6596    6593    6597    6607    6597    6598    6601    6602
    6597    6598    6601    6603    6597    6598    6601    6604
    6597    6607    6604    6601    6597    6607    6604    6605
    6597    6607    6604    6606    6598    6597    6607    6604
    6598    6597    6607    6608    6598    6601    6604    6605
    6598    6601    6604    6606    6598    6601    6604    6607
    6599    6598    6597    6607    6599    6598    6601    6602
    6599    6598    6601    6603    6599    6598    6601    6604
    6600    6598    6597    6607    6600    6598    6601    6602
    6600    6598    6601    6603    6600    6598    6601    6604
    6601    6598    6597    6607    6601    6604    6607    6608
    6602    6601    6604    6605    6602    6601    6604    6606
    6602    6601    6604    6607    6603    6601    6604    6605
    6603    6601    6604    6606    6603    6601    6604    6607
    6605    6604    6607    6608    6606    6604    6607    6608
    6609    6613    6614    6615    6609    6613    6614    6616
    6609    6613    6614    6617    6609    6613    6623    6620
    6609    6613    6623    6624    6610    6609    6613    6614
    6610    6609    6613    6623    6611    6609    6613    6614
    6611    6609    6613    6623    6612    6609    6613    6614
    6612    6609    6613    6623    6613    6614    6617    6618
    6613    6614    6617    6619    6613    6614    6617    6620
    6613    6623    6620    6617    6613    6623    6620    6621
    6613    6623    6620    6622    6614    6613    6623    6620
    6614    6613    6623    6624    6614    6617    6620    6621
    6614    6617    6620    6622    6614    6617    6620    6623
    6615    6614    6613    6623    6615    6614    6617    6618
    6615    6614    6617    6619    6615    6614    6617    6620
    6616    6614    6613    6623    6616    6614    6617    6618
    6616    6614    6617    6619    6616    6614    6617    6620
    6617    6614    6613    6623    6617    6620    6623    6624
    6618    6617    6620    6621    6618    6617    6620    6622
    6618    6617    6620    6623    6619    6617    6620    6621
    6619    6617    6620    6622    6619    6617    6620    6623
    6621    6620    6623    6624    6622    6620    6623    6624
    6625    6629    6630    6631    6625    6629    6630    6632
    6625    6629    6630    6633    6625    6629    6639    6636
    6625    6629    6639    6640    6626    6625    6629    6630
    6626    6625    6629    6639    6627    6625    6629    6630
    6627    6625    6629    6639    6628    6625    6629    6630
    6628    6625    6629    6639    6629    6630    6633    6634
    6629    6630    6633    6635    6629    6630    6633    6636
    6629    6639    6636    6633    6629    6639    6636    6637
    6629    6639    6636    6638    6630    6629    6639    6636
    6630    6629    6639    6640    6630    6633    6636    6637
    6630    6633    6636    6638    6630    6633    6636    6639
    6631    6630    6629    6639    6631    6630    6633    6634
    6631    6630    6633    6635    6631    6630    6633    6636
    6632    6630    6629    6639    6632    6630    6633    6634
    6632    6630    6633    6635    6632    6630    6633    6636
    6633    6630    6629    6639    6633    6636    6639    6640
    6634    6633    6636    6637    6634    6633    6636    6638
    6634    6633    6636    6639    6635    6633    6636    6637
    6635    6633    6636    6638    6635    6633    6636    6639
    6637    6636    6639    6640    6638    6636    6639    6640
    6641    6645    6646    6647    6641    6645    6646    6648
    6641    6645    6646    6649    6641    6645    6655    6652
    6641    6645    6655    6656    6642    6641    6645    6646
    6642    6641    6645    6655    6643    6641    6645    6646
    6643    6641    6645    6655    6644    6641    6645    6646
    6644    6641    6645    6655    6645    6646    6649    6650
    6645    6646    6649    6651    6645    6646    6649    6652
    6645    6655    6652    6649    6645    6655    6652    6653
    6645    6655    6652    6654    6646    6645    6655    6652
    6646    6645    6655    6656    6646    6649    6652    6653
    6646    6649    6652    6654    6646    6649    6652    6655
    6647    6646    6645    6655    6647    6646    6649    6650
    6647    6646    6649    6651    6647    6646    6649    6652
    6648    6646    6645    6655    6648    6646    6649    6650
    6648    6646    6649    6651    6648    6646    6649    6652
    6649    6646    6645    6655    6649    6652    6655    6656
    6650    6649    6652    6653    6650    6649    6652    6654
    6650    6649    6652    6655    6651    6649    6652    6653
    6651    6649    6652    6654    6651    6649    6652    6655
    6653    6652    6655    6656    6654    6652    6655    6656
    6657    6661    6662    6663    6657    6661    6662    6664
    6657    6661    6662    6665    6657    6661    6671    6668
    6657    6661    6671    6672    6658    6657    6661    6662
    6658    6657    6661    6671    6659    6657    6661    6662
    6659    6657    6661    6671    6660    6657    6661    6662
    6660    6657    6661    6671    6661    6662    6665    6666
    6661    6662    6665    6667    6661    6662    6665    6668
    6661    6671    6668    6665    6661    6671    6668    6669
    6661    6671    6668    6670    6662    6661    6671    6668
    6662    6661    6671    6672    6662    6665    6668    6669
    6662    6665    6668    6670    6662    6665    6668    6671
    6663    6662    6661    6671    6663    6662    6665    6666
    6663    6662    6665    6667    6663    6662    6665    6668
    6664    6662    6661    6671    6664    6662    6665    6666
    6664    6662    6665    6667    6664    6662    6665    6668
    6665    6662    6661    6671    6665    6668    6671    6672
    6666    6665    6668    6669    6666    6665    6668    6670
    6666    6665    6668    6671    6667    6665    6668    6669
    6667    6665    6668    6670    6667    6665    6668    6671
    6669    6668    6671    6672    6670    6668    6671    6672
    6673    6677    6678    6679    6673    6677    6678    6680
    6673    6677    6678    6681    6673    6677    6687    6684
    6673    6677    6687    6688    6674    6673    6677    6678
    6674    6673    6677    6687    6675    6673    6677    6678
    6675    6673    6677    6687    6676    6673    6677    6678
    6676    6673    6677    6687    6677    6678    6681    6682
    6677    6678    6681    6683    6677    6678    6681    6684
    6677    6687    6684    6681    6677    6687    6684    6685
    6677    6687    6684    6686    6678    6677    6687    6684
    6678    6677    6687    6688    6678    6681    6684    6685
    6678    6681    6684    6686    6678    6681    6684    6687
    6679    6678    6677    6687    6679    6678    6681    6682
    6679    6678    6681    6683    6679    6678    6681    6684
    6680    6678    6677    6687    6680    6678    6681    6682
    6680    6678    6681    6683    6680    6678    6681    6684
    6681    6678    6677    6687    6681    6684    6687    6688
    6682    6681    6684    6685    6682    6681    6684    6686
    6682    6681    6684    6687    6683    6681    6684    6685
    6683    6681    6684    6686    6683    6681    6684    6687
    6685    6684    6687    6688    6686    6684    6687    6688
    6689    6693    6694    6695    6689    6693    6694    6696
    6689    6693    6694    6697    6689    6693    6703    6700
    6689    6693    6703    6704    6690    6689    6693    6694
    6690    6689    6693    6703    6691    6689    6693    6694
    6691    6689    6693    6703    6692    6689    6693    6694
    6692    6689    6693    6703    6693    6694    6697    6698
    6693    6694    6697    6699    6693    6694    6697    6700
    6693    6703    6700    6697    6693    6703    6700    6701
    6693    6703    6700    6702    6694    6693    6703    6700
    6694    6693    6703    6704    6694    6697    6700    6701
    6694    6697    6700    6702    6694    6697    6700    6703
    6695    6694    6693    6703    6695    6694    6697    6698
    6695    6694    6697    6699    6695    6694    6697    6700
    6696    6694    6693    6703    6696    6694    6697    6698
    6696    6694    6697    6699    6696    6694    6697    6700
    6697    6694    6693    6703    6697    6700    6703    6704
    6698    6697    6700    6701    6698    6697    6700    6702
    6698    6697    6700    6703    6699    6697    6700    6701
    6699    6697    6700    6702    6699    6697    6700    6703
    6701    6700    6703    6704    6702    6700    6703    6704
    6705    6709    6710    6711    6705    6709    6710    6712
    6705    6709    6710    6713    6705    6709    6719    6716
    6705    6709    6719    6720    6706    6705    6709    6710
    6706    6705    6709    6719    6707    6705    6709    6710
    6707    6705    6709    6719    6708    6705    6709    6710
    6708    6705    6709    6719    6709    6710    6713    6714
    6709    6710    6713    6715    6709    6710    6713    6716
    6709    6719    6716    6713    6709    6719    6716    6717
    6709    6719    6716    6718    6710    6709    6719    6716
    6710    6709    6719    6720    6710    6713    6716    6717
    6710    6713    6716    6718    6710    6713    6716    6719
    6711    6710    6709    6719    6711    6710    6713    6714
    6711    6710    6713    6715    6711    6710    6713    6716
    6712    6710    6709    6719    6712    6710    6713    6714
    6712    6710    6713    6715    6712    6710    6713    6716
    6713    6710    6709    6719    6713    6716    6719    6720
    6714    6713    6716    6717    6714    6713    6716    6718
    6714    6713    6716    6719    6715    6713    6716    6717
    6715    6713    6716    6718    6715    6713    6716    6719
    6717    6716    6719    6720    6718    6716    6719    6720
    6721    6725    6726    6727    6721    6725    6726    6728
    6721    6725    6726    6729    6721    6725    6735    6732
    6721    6725    6735    6736    6722    6721    6725    6726
    6722    6721    6725    6735    6723    6721    6725    6726
    6723    6721    6725    6735    6724    6721    6725    6726
    6724    6721    6725    6735    6725    6726    6729    6730
    6725    6726    6729    6731    6725    6726    6729    6732
    6725    6735    6732    6729    6725    6735    6732    6733
    6725    6735    6732    6734    6726    6725    6735    6732
    6726    6725    6735    6736    6726    6729    6732    6733
    6726    6729    6732    6734    6726    6729    6732    6735
    6727    6726    6725    6735    6727    6726    6729    6730
    6727    6726    6729    6731    6727    6726    6729    6732
    6728    6726    6725    6735    6728    6726    6729    6730
    6728    6726    6729    6731    6728    6726    6729    6732
    6729    6726    6725    6735    6729    6732    6735    6736
    6730    6729    6732    6733    6730    6729    6732    6734
    6730    6729    6732    6735    6731    6729    6732    6733
    6731    6729    6732    6734    6731    6729    6732    6735
    6733    6732    6735    6736    6734    6732    6735    6736
    6737    6741    6742    6743    6737    6741    6742    6744
    6737    6741    6742    6745    6737    6741    6751    6748
    6737    6741    6751    6752    6738    6737    6741    6742
    6738    6737    6741    6751    6739    6737    6741    6742
    6739    6737    6741    6751    6740    6737    6741    6742
    6740    6737    6741    6751    6741    6742    6745    6746
    6741    6742    6745    6747    6741    6742    6745    6748
    6741    6751    6748    6745    6741    6751    6748    6749
    6741    6751    6748    6750    6742    6741    6751    6748
    6742    6741    6751    6752    6742    6745    6748    6749
    6742    6745    6748    6750    6742    6745    6748    6751
    6743    6742    6741    6751    6743    6742    6745    6746
    6743    6742    6745    6747    6743    6742    6745    6748
    6744    6742    6741    6751    6744    6742    6745    6746
    6744    6742    6745    6747    6744    6742    6745    6748
    6745    6742    6741    6751    6745    6748    6751    6752
    6746    6745    6748    6749    6746    6745    6748    6750
    6746    6745    6748    6751    6747    6745    6748    6749
    6747    6745    6748    6750    6747    6745    6748    6751
    6749    6748    6751    6752    6750    6748    6751    6752
    6753    6757    6758    6759    6753    6757    6758    6760
    6753    6757    6758    6761    6753    6757    6767    6764
    6753    6757    6767    6768    6754    6753    6757    6758
    6754    6753    6757    6767    6755    6753    6757    6758
    6755    6753    6757    6767    6756    6753    6757    6758
    6756    6753    6757    6767    6757    6758    6761    6762
    6757    6758    6761    6763    6757    6758    6761    6764
    6757    6767    6764    6761    6757    6767    6764    6765
    6757    6767    6764    6766    6758    6757    6767    6764
    6758    6757    6767    6768    6758    6761    6764    6765
    6758    6761    6764    6766    6758    6761    6764    6767
    6759    6758    6757    6767    6759    6758    6761    6762
    6759    6758    6761    6763    6759    6758    6761    6764
    6760    6758    6757    6767    6760    6758    6761    6762
    6760    6758    6761    6763    6760    6758    6761    6764
    6761    6758    6757    6767    6761    6764    6767    6768
    6762    6761    6764    6765    6762    6761    6764    6766
    6762    6761    6764    6767    6763    6761    6764    6765
    6763    6761    6764    6766    6763    6761    6764    6767
    6765    6764    6767    6768    6766    6764    6767    6768
    6769    6773    6774    6775    6769    6773    6774    6776
    6769    6773    6774    6777    6769    6773    6783    6780
    6769    6773    6783    6784    6770    6769    6773    6774
    6770    6769    6773    6783    6771    6769    6773    6774
    6771    6769    6773    6783    6772    6769    6773    6774
    6772    6769    6773    6783    6773    6774    6777    6778
    6773    6774    6777    6779    6773    6774    6777    6780
    6773    6783    6780    6777    6773    6783    6780    6781
    6773    6783    6780    6782    6774    6773    6783    6780
    6774    6773    6783    6784    6774    6777    6780    6781
    6774    6777    6780    6782    6774    6777    6780    6783
    6775    6774    6773    6783    6775    6774    6777    6778
    6775    6774    6777    6779    6775    6774    6777    6780
    6776    6774    6773    6783    6776    6774    6777    6778
    6776    6774    6777    6779    6776    6774    6777    6780
    6777    6774    6773    6783    6777    6780    6783    6784
    6778    6777    6780    6781    6778    6777    6780    6782
    6778    6777    6780    6783    6779    6777    6780    6781
    6779    6777    6780    6782    6779    6777    6780    6783
    6781    6780    6783    6784    6782    6780    6783    6784
    6785    6789    6790    6791    6785    6789    6790    6792
    6785    6789    6790    6793    6785    6789    6799    6796
    6785    6789    6799    6800    6786    6785    6789    6790
    6786    6785    6789    6799    6787    6785    6789    6790
    6787    6785    6789    6799    6788    6785    6789    6790
    6788    6785    6789    6799    6789    6790    6793    6794
    6789    6790    6793    6795    6789    6790    6793    6796
    6789    6799    6796    6793    6789    6799    6796    6797
    6789    6799    6796    6798    6790    6789    6799    6796
    6790    6789    6799    6800    6790    6793    6796    6797
    6790    6793    6796    6798    6790    6793    6796    6799
    6791    6790    6789    6799    6791    6790    6793    6794
    6791    6790    6793    6795    6791    6790    6793    6796
    6792    6790    6789    6799    6792    6790    6793    6794
    6792    6790    6793    6795    6792    6790    6793    6796
    6793    6790    6789    6799    6793    6796    6799    6800
    6794    6793    6796    6797    6794    6793    6796    6798
    6794    6793    6796    6799    6795    6793    6796    6797
    6795    6793    6796    6798    6795    6793    6796    6799
    6797    6796    6799    6800    6798    6796    6799    6800
    6801    6805    6806    6807    6801    6805    6806    6808
    6801    6805    6806    6809    6801    6805    6815    6812
    6801    6805    6815    6816    6802    6801    6805    6806
    6802    6801    6805    6815    6803    6801    6805    6806
    6803    6801    6805    6815    6804    6801    6805    6806
    6804    6801    6805    6815    6805    6806    6809    6810
    6805    6806    6809    6811    6805    6806    6809    6812
    6805    6815    6812    6809    6805    6815    6812    6813
    6805    6815    6812    6814    6806    6805    6815    6812
    6806    6805    6815    6816    6806    6809    6812    6813
    6806    6809    6812    6814    6806    6809    6812    6815
    6807    6806    6805    6815    6807    6806    6809    6810
    6807    6806    6809    6811    6807    6806    6809    6812
    6808    6806    6805    6815    6808    6806    6809    6810
    6808    6806    6809    6811    6808    6806    6809    6812
    6809    6806    6805    6815    6809    6812    6815    6816
    6810    6809    6812    6813    6810    6809    6812    6814
    6810    6809    6812    6815    6811    6809    6812    6813
    6811    6809    6812    6814    6811    6809    6812    6815
    6813    6812    6815    6816    6814    6812    6815    6816
    6817    6821    6822    6823    6817    6821    6822    6824
    6817    6821    6822    6825    6817    6821    6831    6828
    6817    6821    6831    6832    6818    6817    6821    6822
    6818    6817    6821    6831    6819    6817    6821    6822
    6819    6817    6821    6831    6820    6817    6821    6822
    6820    6817    6821    6831    6821    6822    6825    6826
    6821    6822    6825    6827    6821    6822    6825    6828
    6821    6831    6828    6825    6821    6831    6828    6829
    6821    6831    6828    6830    6822    6821    6831    6828
    6822    6821    6831    6832    6822    6825    6828    6829
    6822    6825    6828    6830    6822    6825    6828    6831
    6823    6822    6821    6831    6823    6822    6825    6826
    6823    6822    6825    6827    6823    6822    6825    6828
    6824    6822    6821    6831    6824    6822    6825    6826
    6824    6822    6825    6827    6824    6822    6825    6828
    6825    6822    6821    6831    6825    6828    6831    6832
    6826    6825    6828    6829    6826    6825    6828    6830
    6826    6825    6828    6831    6827    6825    6828    6829
    6827    6825    6828    6830    6827    6825    6828    6831
    6829    6828    6831    6832    6830    6828    6831    6832
    6833    6837    6838    6839    6833    6837    6838    6840
    6833    6837    6838    6841    6833    6837    6847    6844
    6833    6837    6847    6848    6834    6833    6837    6838
    6834    6833    6837    6847    6835    6833    6837    6838
    6835    6833    6837    6847    6836    6833    6837    6838
    6836    6833    6837    6847    6837    6838    6841    6842
    6837    6838    6841    6843    6837    6838    6841    6844
    6837    6847    6844    6841    6837    6847    6844    6845
    6837    6847    6844    6846    6838    6837    6847    6844
    6838    6837    6847    6848    6838    6841    6844    6845
    6838    6841    6844    6846    6838    6841    6844    6847
    6839    6838    6837    6847    6839    6838    6841    6842
    6839    6838    6841    6843    6839    6838    6841    6844
    6840    6838    6837    6847    6840    6838    6841    6842
    6840    6838    6841    6843    6840    6838    6841    6844
    6841    6838    6837    6847    6841    6844    6847    6848
    6842    6841    6844    6845    6842    6841    6844    6846
    6842    6841    6844    6847    6843    6841    6844    6845
    6843    6841    6844    6846    6843    6841    6844    6847
    6845    6844    6847    6848    6846    6844    6847    6848
    6849    6853    6854    6855    6849    6853    6854    6856
    6849    6853    6854    6857    6849    6853    6863    6860
    6849    6853    6863    6864    6850    6849    6853    6854
    6850    6849    6853    6863    6851    6849    6853    6854
    6851    6849    6853    6863    6852    6849    6853    6854
    6852    6849    6853    6863    6853    6854    6857    6858
    6853    6854    6857    6859    6853    6854    6857    6860
    6853    6863    6860    6857    6853    6863    6860    6861
    6853    6863    6860    6862    6854    6853    6863    6860
    6854    6853    6863    6864    6854    6857    6860    6861
    6854    6857    6860    6862    6854    6857    6860    6863
    6855    6854    6853    6863    6855    6854    6857    6858
    6855    6854    6857    6859    6855    6854    6857    6860
    6856    6854    6853    6863    6856    6854    6857    6858
    6856    6854    6857    6859    6856    6854    6857    6860
    6857    6854    6853    6863    6857    6860    6863    6864
    6858    6857    6860    6861    6858    6857    6860    6862
    6858    6857    6860    6863    6859    6857    6860    6861
    6859    6857    6860    6862    6859    6857    6860    6863
    6861    6860    6863    6864    6862    6860    6863    6864
    6865    6869    6870    6871    6865    6869    6870    6872
    6865    6869    6870    6873    6865    6869    6879    6876
    6865    6869    6879    6880    6866    6865    6869    6870
    6866    6865    6869    6879    6867    6865    6869    6870
    6867    6865    6869    6879    6868    6865    6869    6870
    6868    6865    6869    6879    6869    6870    6873    6874
    6869    6870    6873    6875    6869    6870    6873    6876
    6869    6879    6876    6873    6869    6879    6876    6877
    6869    6879    6876    6878    6870    6869    6879    6876
    6870    6869    6879    6880    6870    6873    6876    6877
    6870    6873    6876    6878    6870    6873    6876    6879
    6871    6870    6869    6879    6871    6870    6873    6874
    6871    6870    6873    6875    6871    6870    6873    6876
    6872    6870    6869    6879    6872    6870    6873    6874
    6872    6870    6873    6875    6872    6870    6873    6876
    6873    6870    6869    6879    6873    6876    6879    6880
    6874    6873    6876    6877    6874    6873    6876    6878
    6874    6873    6876    6879    6875    6873    6876    6877
    6875    6873    6876    6878    6875    6873    6876    6879
    6877    6876    6879    6880    6878    6876    6879    6880
    6881    6885    6886    6887    6881    6885    6886    6888
    6881    6885    6886    6889    6881    6885    6895    6892
    6881    6885    6895    6896    6882    6881    6885    6886
    6882    6881    6885    6895    6883    6881    6885    6886
    6883    6881    6885    6895    6884    6881    6885    6886
    6884    6881    6885    6895    6885    6886    6889    6890
    6885    6886    6889    6891    6885    6886    6889    6892
    6885    6895    6892    6889    6885    6895    6892    6893
    6885    6895    6892    6894    6886    6885    6895    6892
    6886    6885    6895    6896    6886    6889    6892    6893
    6886    6889    6892    6894    6886    6889    6892    6895
    6887    6886    6885    6895    6887    6886    6889    6890
    6887    6886    6889    6891    6887    6886    6889    6892
    6888    6886    6885    6895    6888    6886    6889    6890
    6888    6886    6889    6891    6888    6886    6889    6892
    6889    6886    6885    6895    6889    6892    6895    6896
    6890    6889    6892    6893    6890    6889    6892    6894
    6890    6889    6892    6895    6891    6889    6892    6893
    6891    6889    6892    6894    6891    6889    6892    6895
    6893    6892    6895    6896    6894    6892    6895    6896
    6897    6901    6902    6903    6897    6901    6902    6904
    6897    6901    6902    6905    6897    6901    6911    6908
    6897    6901    6911    6912    6898    6897    6901    6902
    6898    6897    6901    6911    6899    6897    6901    6902
    6899    6897    6901    6911    6900    6897    6901    6902
    6900    6897    6901    6911    6901    6902    6905    6906
    6901    6902    6905    6907    6901    6902    6905    6908
    6901    6911    6908    6905    6901    6911    6908    6909
    6901    6911    6908    6910    6902    6901    6911    6908
    6902    6901    6911    6912    6902    6905    6908    6909
    6902    6905    6908    6910    6902    6905    6908    6911
    6903    6902    6901    6911    6903    6902    6905    6906
    6903    6902    6905    6907    6903    6902    6905    6908
    6904    6902    6901    6911    6904    6902    6905    6906
    6904    6902    6905    6907    6904    6902    6905    6908
    6905    6902    6901    6911    6905    6908    6911    6912
    6906    6905    6908    6909    6906    6905    6908    6910
    6906    6905    6908    6911    6907    6905    6908    6909
    6907    6905    6908    6910    6907    6905    6908    6911
    6909    6908    6911    6912    6910    6908    6911    6912
    6913    6917    6918    6919    6913    6917    6918    6920
    6913    6917    6918    6921    6913    6917    6927    6924
    6913    6917    6927    6928    6914    6913    6917    6918
    6914    6913    6917    6927    6915    6913    6917    6918
    6915    6913    6917    6927    6916    6913    6917    6918
    6916    6913    6917    6927    6917    6918    6921    6922
    6917    6918    6921    6923    6917    6918    6921    6924
    6917    6927    6924    6921    6917    6927    6924    6925
    6917    6927    6924    6926    6918    6917    6927    6924
    6918    6917    6927    6928    6918    6921    6924    6925
    6918    6921    6924    6926    6918    6921    6924    6927
    6919    6918    6917    6927    6919    6918    6921    6922
    6919    6918    6921    6923    6919    6918    6921    6924
    6920    6918    6917    6927    6920    6918    6921    6922
    6920    6918    6921    6923    6920    6918    6921    6924
    6921    6918    6917    6927    6921    6924    6927    6928
    6922    6921    6924    6925    6922    6921    6924    6926
    6922    6921    6924    6927    6923    6921    6924    6925
    6923    6921    6924    6926    6923    6921    6924    6927
    6925    6924    6927    6928    6926    6924    6927    6928
    6929    6933    6934    6935    6929    6933    6934    6936
    6929    6933    6934    6937    6929    6933    6943    6940
    6929    6933    6943    6944    6930    6929    6933    6934
    6930    6929    6933    6943    6931    6929    6933    6934
    6931    6929    6933    6943    6932    6929    6933    6934
    6932    6929    6933    6943    6933    6934    6937    6938
    6933    6934    6937    6939    6933    6934    6937    6940
    6933    6943    6940    6937    6933    6943    6940    6941
    6933    6943    6940    6942    6934    6933    6943    6940
    6934    6933    6943    6944    6934    6937    6940    6941
    6934    6937    6940    6942    6934    6937    6940    6943
    6935    6934    6933    6943    6935    6934    6937    6938
    6935    6934    6937    6939    6935    6934    6937    6940
    6936    6934    6933    6943    6936    6934    6937    6938
    6936    6934    6937    6939    6936    6934    6937    6940
    6937    6934    6933    6943    6937    6940    6943    6944
    6938    6937    6940    6941    6938    6937    6940    6942
    6938    6937    6940    6943    6939    6937    6940    6941
    6939    6937    6940    6942    6939    6937    6940    6943
    6941    6940    6943    6944    6942    6940    6943    6944
    6945    6949    6950    6951    6945    6949    6950    6952
    6945    6949    6950    6953    6945    6949    6959    6956
    6945    6949    6959    6960    6946    6945    6949    6950
    6946    6945    6949    6959    6947    6945    6949    6950
    6947    6945    6949    6959    6948    6945    6949    6950
    6948    6945    6949    6959    6949    6950    6953    6954
    6949    6950    6953    6955    6949    6950    6953    6956
    6949    6959    6956    6953    6949    6959    6956    6957
    6949    6959    6956    6958    6950    6949    6959    6956
    6950    6949    6959    6960    6950    6953    6956    6957
    6950    6953    6956    6958    6950    6953    6956    6959
    6951    6950    6949    6959    6951    6950    6953    6954
    6951    6950    6953    6955    6951    6950    6953    6956
    6952    6950    6949    6959    6952    6950    6953    6954
    6952    6950    6953    6955    6952    6950    6953    6956
    6953    6950    6949    6959    6953    6956    6959    6960
    6954    6953    6956    6957    6954    6953    6956    6958
    6954    6953    6956    6959    6955    6953    6956    6957
    6955    6953    6956    6958    6955    6953    6956    6959
    6957    6956    6959    6960    6958    6956    6959    6960
    6961    6965    6966    6967    6961    6965    6966    6968
    6961    6965    6966    6969    6961    6965    6975    6972
    6961    6965    6975    6976    6962    6961    6965    6966
    6962    6961    6965    6975    6963    6961    6965    6966
    6963    6961    6965    6975    6964    6961    6965    6966
    6964    6961    6965    6975    6965    6966    6969    6970
    6965    6966    6969    6971    6965    6966    6969    6972
    6965    6975    6972    6969    6965    6975    6972    6973
    6965    6975    6972    6974    6966    6965    6975    6972
    6966    6965    6975    6976    6966    6969    6972    6973
    6966    6969    6972    6974    6966    6969    6972    6975
    6967    6966    6965    6975    6967    6966    6969    6970
    6967    6966    6969    6971    6967    6966    6969    6972
    6968    6966    6965    6975    6968    6966    6969    6970
    6968    6966    6969    6971    6968    6966    6969    6972
    6969    6966    6965    6975    6969    6972    6975    6976
    6970    6969    6972    6973    6970    6969    6972    6974
    6970    6969    6972    6975    6971    6969    6972    6973
    6971    6969    6972    6974    6971    6969    6972    6975
    6973    6972    6975    6976    6974    6972    6975    6976
    6977    6981    6982    6983    6977    6981    6982    6984
    6977    6981    6982    6985    6977    6981    6991    6988
    6977    6981    6991    6992    6978    6977    6981    6982
    6978    6977    6981    6991    6979    6977    6981    6982
    6979    6977    6981    6991    6980    6977    6981    6982
    6980    6977    6981    6991    6981    6982    6985    6986
    6981    6982    6985    6987    6981    6982    6985    6988
    6981    6991    6988    6985    6981    6991    6988    6989
    6981    6991    6988    6990    6982    6981    6991    6988
    6982    6981    6991    6992    6982    6985    6988    6989
    6982    6985    6988    6990    6982    6985    6988    6991
    6983    6982    6981    6991    6983    6982    6985    6986
    6983    6982    6985    6987    6983    6982    6985    6988
    6984    6982    6981    6991    6984    6982    6985    6986
    6984    6982    6985    6987    6984    6982    6985    6988
    6985    6982    6981    6991    6985    6988    6991    6992
    6986    6985    6988    6989    6986    6985    6988    6990
    6986    6985    6988    6991    6987    6985    6988    6989
    6987    6985    6988    6990    6987    6985    6988    6991
    6989    6988    6991    6992    6990    6988    6991    6992
    6993    6997    6998    6999    6993    6997    6998    7000
    6993    6997    6998    7001    6993    6997    7007    7004
    6993    6997    7007    7008    6994    6993    6997    6998
    6994    6993    6997    7007    6995    6993    6997    6998
    6995    6993    6997    7007    6996    6993    6997    6998
    6996    6993    6997    7007    6997    6998    7001    7002
    6997    6998    7001    7003    6997    6998    7001    7004
    6997    7007    7004    7001    6997    7007    7004    7005
    6997    7007    7004    7006    6998    6997    7007    7004
    6998    6997    7007    7008    6998    7001    7004    7005
    6998    7001    7004    7006    6998    7001    7004    7007
    6999    6998    6997    7007    6999    6998    7001    7002
    6999    6998    7001    7003    6999    6998    7001    7004
    7000    6998    6997    7007    7000    6998    7001    7002
    7000    6998    7001    7003    7000    6998    7001    7004
    7001    6998    6997    7007    7001    7004    7007    7008
    7002    7001    7004    7005    7002    7001    7004    7006
    7002    7001    7004    7007    7003    7001    7004    7005
    7003    7001    7004    7006    7003    7001    7004    7007
    7005    7004    7007    7008    7006    7004    7007    7008
    7009    7013    7014    7015    7009    7013    7014    7016
    7009    7013    7014    7017    7009    7013    7023    7020
    7009    7013    7023    7024    7010    7009    7013    7014
    7010    7009    7013    7023    7011    7009    7013    7014
    7011    7009    7013    7023    7012    7009    7013    7014
    7012    7009    7013    7023    7013    7014    7017    7018
    7013    7014    7017    7019    7013    7014    7017    7020
    7013    7023    7020    7017    7013    7023    7020    7021
    7013    7023    7020    7022    7014    7013    7023    7020
    7014    7013    7023    7024    7014    7017    7020    7021
    7014    7017    7020    7022    7014    7017    7020    7023
    7015    7014    7013    7023    7015    7014    7017    7018
    7015    7014    7017    7019    7015    7014    7017    7020
    7016    7014    7013    7023    7016    7014    7017    7018
    7016    7014    7017    7019    7016    7014    7017    7020
    7017    7014    7013    7023    7017    7020    7023    7024
    7018    7017    7020    7021    7018    7017    7020    7022
    7018    7017    7020    7023    7019    7017    7020    7021
    7019    7017    7020    7022    7019    7017    7020    7023
    7021    7020    7023    7024    7022    7020    7023    7024
    7025    7029    7030    7031    7025    7029    7030    7032
    7025    7029    7030    7033    7025    7029    7039    7036
    7025    7029    7039    7040    7026    7025    7029    7030
    7026    7025    7029    7039    7027    7025    7029    7030
    7027    7025    7029    7039    7028    7025    7029    7030
    7028    7025    7029    7039    7029    7030    7033    7034
    7029    7030    7033    7035    7029    7030    7033    7036
    7029    7039    7036    7033    7029    7039    7036    7037
    7029    7039    7036    7038    7030    7029    7039    7036
    7030    7029    7039    7040    7030    7033    7036    7037
    7030    7033    7036    7038    7030    7033    7036    7039
    7031    7030    7029    7039    7031    7030    7033    7034
    7031    7030    7033    7035    7031    7030    7033    7036
    7032    7030    7029    7039    7032    7030    7033    7034
    7032    7030    7033    7035    7032    7030    7033    7036
    7033    7030    7029    7039    7033    7036    7039    7040
    7034    7033    7036    7037    7034    7033    7036    7038
    7034    7033    7036    7039    7035    7033    7036    7037
    7035    7033    7036    7038    7035    7033    7036    7039
    7037    7036    7039    7040    7038    7036    7039    7040
    7041    7045    7046    7047    7041    7045    7046    7048
    7041    7045    7046    7049    7041    7045    7055    7052
    7041    7045    7055    7056    7042    7041    7045    7046
    7042    7041    7045    7055    7043    7041    7045    7046
    7043    7041    7045    7055    7044    7041    7045    7046
    7044    7041    7045    7055    7045    7046    7049    7050
    7045    7046    7049    7051    7045    7046    7049    7052
    7045    7055    7052    7049    7045    7055    7052    7053
    7045    7055    7052    7054    7046    7045    7055    7052
    7046    7045    7055    7056    7046    7049    7052    7053
    7046    7049    7052    7054    7046    7049    7052    7055
    7047    7046    7045    7055    7047    7046    7049    7050
    7047    7046    7049    7051    7047    7046    7049    7052
    7048    7046    7045    7055    7048    7046    7049    7050
    7048    7046    7049    7051    7048    7046    7049    7052
    7049    7046    7045    7055    7049    7052    7055    7056
    7050    7049    7052    7053    7050    7049    7052    7054
    7050    7049    7052    7055    7051    7049    7052    7053
    7051    7049    7052    7054    7051    7049    7052    7055
    7053    7052    7055    7056    7054    7052    7055    7056
    7057    7061    7062    7063    7057    7061    7062    7064
    7057    7061    7062    7065    7057    7061    7071    7068
    7057    7061    7071    7072    7058    7057    7061    7062
    7058    7057    7061    7071    7059    7057    7061    7062
    7059    7057    7061    7071    7060    7057    7061    7062
    7060    7057    7061    7071    7061    7062    7065    7066
    7061    7062    7065    7067    7061    7062    7065    7068
    7061    7071    7068    7065    7061    7071    7068    7069
    7061    7071    7068    7070    7062    7061    7071    7068
    7062    7061    7071    7072    7062    7065    7068    7069
    7062    7065    7068    7070    7062    7065    7068    7071
    7063    7062    7061    7071    7063    7062    7065    7066
    7063    7062    7065    7067    7063    7062    7065    7068
    7064    7062    7061    7071    7064    7062    7065    7066
    7064    7062    7065    7067    7064    7062    7065    7068
    7065    7062    7061    7071    7065    7068    7071    7072
    7066    7065    7068    7069    7066    7065    7068    7070
    7066    7065    7068    7071    7067    7065    7068    7069
    7067    7065    7068    7070    7067    7065    7068    7071
    7069    7068    7071    7072    7070    7068    7071    7072
    7073    7077    7078    7079    7073    7077    7078    7080
    7073    7077    7078    7081    7073    7077    7087    7084
    7073    7077    7087    7088    7074    7073    7077    7078
    7074    7073    7077    7087    7075    7073    7077    7078
    7075    7073    7077    7087    7076    7073    7077    7078
    7076    7073    7077    7087    7077    7078    7081    7082
    7077    7078    7081    7083    7077    7078    7081    7084
    7077    7087    7084    7081    7077    7087    7084    7085
    7077    7087    7084    7086    7078    7077    7087    7084
    7078    7077    7087    7088    7078    7081    7084    7085
    7078    7081    7084    7086    7078    7081    7084    7087
    7079    7078    7077    7087    7079    7078    7081    7082
    7079    7078    7081    7083    7079    7078    7081    7084
    7080    7078    7077    7087    7080    7078    7081    7082
    7080    7078    7081    7083    7080    7078    7081    7084
    7081    7078    7077    7087    7081    7084    7087    7088
    7082    7081    7084    7085    7082    7081    7084    7086
    7082    7081    7084    7087    7083    7081    7084    7085
    7083    7081    7084    7086    7083    7081    7084    7087
    7085    7084    7087    7088    7086    7084    7087    7088
    7089    7093    7094    7095    7089    7093    7094    7096
    7089    7093    7094    7097    7089    7093    7103    7100
    7089    7093    7103    7104    7090    7089    7093    7094
    7090    7089    7093    7103    7091    7089    7093    7094
    7091    7089    7093    7103    7092    7089    7093    7094
    7092    7089    7093    7103    7093    7094    7097    7098
    7093    7094    7097    7099    7093    7094    7097    7100
    7093    7103    7100    7097    7093    7103    7100    7101
    7093    7103    7100    7102    7094    7093    7103    7100
    7094    7093    7103    7104    7094    7097    7100    7101
    7094    7097    7100    7102    7094    7097    7100    7103
    7095    7094    7093    7103    7095    7094    7097    7098
    7095    7094    7097    7099    7095    7094    7097    7100
    7096    7094    7093    7103    7096    7094    7097    7098
    7096    7094    7097    7099    7096    7094    7097    7100
    7097    7094    7093    7103    7097    7100    7103    7104
    7098    7097    7100    7101    7098    7097    7100    7102
    7098    7097    7100    7103    7099    7097    7100    7101
    7099    7097    7100    7102    7099    7097    7100    7103
    7101    7100    7103    7104    7102    7100    7103    7104
    7105    7109    7110    7111    7105    7109    7110    7112
    7105    7109    7110    7113    7105    7109    7119    7116
    7105    7109    7119    7120    7106    7105    7109    7110
    7106    7105    7109    7119    7107    7105    7109    7110
    7107    7105    7109    7119    7108    7105    7109    7110
    7108    7105    7109    7119    7109    7110    7113    7114
    7109    7110    7113    7115    7109    7110    7113    7116
    7109    7119    7116    7113    7109    7119    7116    7117
    7109    7119    7116    7118    7110    7109    7119    7116
    7110    7109    7119    7120    7110    7113    7116    7117
    7110    7113    7116    7118    7110    7113    7116    7119
    7111    7110    7109    7119    7111    7110    7113    7114
    7111    7110    7113    7115    7111    7110    7113    7116
    7112    7110    7109    7119    7112    7110    7113    7114
    7112    7110    7113    7115    7112    7110    7113    7116
    7113    7110    7109    7119    7113    7116    7119    7120
    7114    7113    7116    7117    7114    7113    7116    7118
    7114    7113    7116    7119    7115    7113    7116    7117
    7115    7113    7116    7118    7115    7113    7116    7119
    7117    7116    7119    7120    7118    7116    7119    7120
    7121    7125    7126    7127    7121    7125    7126    7128
    7121    7125    7126    7129    7121    7125    7135    7132
    7121    7125    7135    7136    7122    7121    7125    7126
    7122    7121    7125    7135    7123    7121    7125    7126
    7123    7121    7125    7135    7124    7121    7125    7126
    7124    7121    7125    7135    7125    7126    7129    7130
    7125    7126    7129    7131    7125    7126    7129    7132
    7125    7135    7132    7129    7125    7135    7132    7133
    7125    7135    7132    7134    7126    7125    7135    7132
    7126    7125    7135    7136    7126    7129    7132    7133
    7126    7129    7132    7134    7126    7129    7132    7135
    7127    7126    7125    7135    7127    7126    7129    7130
    7127    7126    7129    7131    7127    7126    7129    7132
    7128    7126    7125    7135    7128    7126    7129    7130
    7128    7126    7129    7131    7128    7126    7129    7132
    7129    7126    7125    7135    7129    7132    7135    7136
    7130    7129    7132    7133    7130    7129    7132    7134
    7130    7129    7132    7135    7131    7129    7132    7133
    7131    7129    7132    7134    7131    7129    7132    7135
    7133    7132    7135    7136    7134    7132    7135    7136
    7137    7141    7142    7143    7137    7141    7142    7144
    7137    7141    7142    7145    7137    7141    7151    7148
    7137    7141    7151    7152    7138    7137    7141    7142
    7138    7137    7141    7151    7139    7137    7141    7142
    7139    7137    7141    7151    7140    7137    7141    7142
    7140    7137    7141    7151    7141    7142    7145    7146
    7141    7142    7145    7147    7141    7142    7145    7148
    7141    7151    7148    7145    7141    7151    7148    7149
    7141    7151    7148    7150    7142    7141    7151    7148
    7142    7141    7151    7152    7142    7145    7148    7149
    7142    7145    7148    7150    7142    7145    7148    7151
    7143    7142    7141    7151    7143    7142    7145    7146
    7143    7142    7145    7147    7143    7142    7145    7148
    7144    7142    7141    7151    7144    7142    7145    7146
    7144    7142    7145    7147    7144    7142    7145    7148
    7145    7142    7141    7151    7145    7148    7151    7152
    7146    7145    7148    7149    7146    7145    7148    7150
    7146    7145    7148    7151    7147    7145    7148    7149
    7147    7145    7148    7150    7147    7145    7148    7151
    7149    7148    7151    7152    7150    7148    7151    7152
    7153    7157    7158    7159    7153    7157    7158    7160
    7153    7157    7158    7161    7153    7157    7167    7164
    7153    7157    7167    7168    7154    7153    7157    7158
    7154    7153    7157    7167    7155    7153    7157    7158
    7155    7153    7157    7167    7156    7153    7157    7158
    7156    7153    7157    7167    7157    7158    7161    7162
    7157    7158    7161    7163    7157    7158    7161    7164
    7157    7167    7164    7161    7157    7167    7164    7165
    7157    7167    7164    7166    7158    7157    7167    7164
    7158    7157    7167    7168    7158    7161    7164    7165
    7158    7161    7164    7166    7158    7161    7164    7167
    7159    7158    7157    7167    7159    7158    7161    7162
    7159    7158    7161    7163    7159    7158    7161    7164
    7160    7158    7157    7167    7160    7158    7161    7162
    7160    7158    7161    7163    7160    7158    7161    7164
    7161    7158    7157    7167    7161    7164    7167    7168
    7162    7161    7164    7165    7162    7161    7164    7166
    7162    7161    7164    7167    7163    7161    7164    7165
    7163    7161    7164    7166    7163    7161    7164    7167
    7165    7164    7167    7168    7166    7164    7167    7168
    7169    7173    7174    7175    7169    7173    7174    7176
    7169    7173    7174    7177    7169    7173    7183    7180
    7169    7173    7183    7184    7170    7169    7173    7174
    7170    7169    7173    7183    7171    7169    7173    7174
    7171    7169    7173    7183    7172    7169    7173    7174
    7172    7169    7173    7183    7173    7174    7177    7178
    7173    7174    7177    7179    7173    7174    7177    7180
    7173    7183    7180    7177    7173    7183    7180    7181
    7173    7183    7180    7182    7174    7173    7183    7180
    7174    7173    7183    7184    7174    7177    7180    7181
    7174    7177    7180    7182    7174    7177    7180    7183
    7175    7174    7173    7183    7175    7174    7177    7178
    7175    7174    7177    7179    7175    7174    7177    7180
    7176    7174    7173    7183    7176    7174    7177    7178
    7176    7174    7177    7179    7176    7174    7177    7180
    7177    7174    7173    7183    7177    7180    7183    7184
    7178    7177    7180    7181    7178    7177    7180    7182
    7178    7177    7180    7183    7179    7177    7180    7181
    7179    7177    7180    7182    7179    7177    7180    7183
    7181    7180    7183    7184    7182    7180    7183    7184
    7185    7189    7190    7191    7185    7189    7190    7192
    7185    7189    7190    7193    7185    7189    7199    7196
    7185    7189    7199    7200    7186    7185    7189    7190
    7186    7185    7189    7199    7187    7185    7189    7190
    7187    7185    7189    7199    7188    7185    7189    7190
    7188    7185    7189    7199    7189    7190    7193    7194
    7189    7190    7193    7195    7189    7190    7193    7196
    7189    7199    7196    7193    7189    7199    7196    7197
    7189    7199    7196    7198    7190    7189    7199    7196
    7190    7189    7199    7200    7190    7193    7196    7197
    7190    7193    7196    7198    7190    7193    7196    7199
    7191    7190    7189    7199    7191    7190    7193    7194
    7191    7190    7193    7195    7191    7190    7193    7196
    7192    7190    7189    7199    7192    7190    7193    7194
    7192    7190    7193    7195    7192    7190    7193    7196
    7193    7190    7189    7199    7193    7196    7199    7200
    7194    7193    7196    7197    7194    7193    7196    7198
    7194    7193    7196    7199    7195    7193    7196    7197
    7195    7193    7196    7198    7195    7193    7196    7199
    7197    7196    7199    7200    7198    7196    7199    7200
    7201    7205    7206    7207    7201    7205    7206    7208
    7201    7205    7206    7209    7201    7205    7215    7212
    7201    7205    7215    7216    7202    7201    7205    7206
    7202    7201    7205    7215    7203    7201    7205    7206
    7203    7201    7205    7215    7204    7201    7205    7206
    7204    7201    7205    7215    7205    7206    7209    7210
    7205    7206    7209    7211    7205    7206    7209    7212
    7205    7215    7212    7209    7205    7215    7212    7213
    7205    7215    7212    7214    7206    7205    7215    7212
    7206    7205    7215    7216    7206    7209    7212    7213
    7206    7209    7212    7214    7206    7209    7212    7215
    7207    7206    7205    7215    7207    7206    7209    7210
    7207    7206    7209    7211    7207    7206    7209    7212
    7208    7206    7205    7215    7208    7206    7209    7210
    7208    7206    7209    7211    7208    7206    7209    7212
    7209    7206    7205    7215    7209    7212    7215    7216
    7210    7209    7212    7213    7210    7209    7212    7214
    7210    7209    7212    7215    7211    7209    7212    7213
    7211    7209    7212    7214    7211    7209    7212    7215
    7213    7212    7215    7216    7214    7212    7215    7216
    7217    7221    7222    7223    7217    7221    7222    7224
    7217    7221    7222    7225    7217    7221    7231    7228
    7217    7221    7231    7232    7218    7217    7221    7222
    7218    7217    7221    7231    7219    7217    7221    7222
    7219    7217    7221    7231    7220    7217    7221    7222
    7220    7217    7221    7231    7221    7222    7225    7226
    7221    7222    7225    7227    7221    7222    7225    7228
    7221    7231    7228    7225    7221    7231    7228    7229
    7221    7231    7228    7230    7222    7221    7231    7228
    7222    7221    7231    7232    7222    7225    7228    7229
    7222    7225    7228    7230    7222    7225    7228    7231
    7223    7222    7221    7231    7223    7222    7225    7226
    7223    7222    7225    7227    7223    7222    7225    7228
    7224    7222    7221    7231    7224    7222    7225    7226
    7224    7222    7225    7227    7224    7222    7225    7228
    7225    7222    7221    7231    7225    7228    7231    7232
    7226    7225    7228    7229    7226    7225    7228    7230
    7226    7225    7228    7231    7227    7225    7228    7229
    7227    7225    7228    7230    7227    7225    7228    7231
    7229    7228    7231    7232    7230    7228    7231    7232
    7233    7237    7238    7239    7233    7237    7238    7240
    7233    7237    7238    7241    7233    7237    7247    7244
    7233    7237    7247    7248    7234    7233    7237    7238
    7234    7233    7237    7247    7235    7233    7237    7238
    7235    7233    7237    7247    7236    7233    7237    7238
    7236    7233    7237    7247    7237    7238    7241    7242
    7237    7238    7241    7243    7237    7238    7241    7244
    7237    7247    7244    7241    7237    7247    7244    7245
    7237    7247    7244    7246    7238    7237    7247    7244
    7238    7237    7247    7248    7238    7241    7244    7245
    7238    7241    7244    7246    7238    7241    7244    7247
    7239    7238    7237    7247    7239    7238    7241    7242
    7239    7238    7241    7243    7239    7238    7241    7244
    7240    7238    7237    7247    7240    7238    7241    7242
    7240    7238    7241    7243    7240    7238    7241    7244
    7241    7238    7237    7247    7241    7244    7247    7248
    7242    7241    7244    7245    7242    7241    7244    7246
    7242    7241    7244    7247    7243    7241    7244    7245
    7243    7241    7244    7246    7243    7241    7244    7247
    7245    7244    7247    7248    7246    7244    7247    7248
    7249    7253    7254    7255    7249    7253    7254    7256
    7249    7253    7254    7257    7249    7253    7263    7260
    7249    7253    7263    7264    7250    7249    7253    7254
    7250    7249    7253    7263    7251    7249    7253    7254
    7251    7249    7253    7263    7252    7249    7253    7254
    7252    7249    7253    7263    7253    7254    7257    7258
    7253    7254    7257    7259    7253    7254    7257    7260
    7253    7263    7260    7257    7253    7263    7260    7261
    7253    7263    7260    7262    7254    7253    7263    7260
    7254    7253    7263    7264    7254    7257    7260    7261
    7254    7257    7260    7262    7254    7257    7260    7263
    7255    7254    7253    7263    7255    7254    7257    7258
    7255    7254    7257    7259    7255    7254    7257    7260
    7256    7254    7253    7263    7256    7254    7257    7258
    7256    7254    7257    7259    7256    7254    7257    7260
    7257    7254    7253    7263    7257    7260    7263    7264
    7258    7257    7260    7261    7258    7257    7260    7262
    7258    7257    7260    7263    7259    7257    7260    7261
    7259    7257    7260    7262    7259    7257    7260    7263
    7261    7260    7263    7264    7262    7260    7263    7264
    7265    7269    7270    7271    7265    7269    7270    7272
    7265    7269    7270    7273    7265    7269    7279    7276
    7265    7269    7279    7280    7266    7265    7269    7270
    7266    7265    7269    7279    7267    7265    7269    7270
    7267    7265    7269    7279    7268    7265    7269    7270
    7268    7265    7269    7279    7269    7270    7273    7274
    7269    7270    7273    7275    7269    7270    7273    7276
    7269    7279    7276    7273    7269    7279    7276    7277
    7269    7279    7276    7278    7270    7269    7279    7276
    7270    7269    7279    7280    7270    7273    7276    7277
    7270    7273    7276    7278    7270    7273    7276    7279
    7271    7270    7269    7279    7271    7270    7273    7274
    7271    7270    7273    7275    7271    7270    7273    7276
    7272    7270    7269    7279    7272    7270    7273    7274
    7272    7270    7273    7275    7272    7270    7273    7276
    7273    7270    7269    7279    7273    7276    7279    7280
    7274    7273    7276    7277    7274    7273    7276    7278
    7274    7273    7276    7279    7275    7273    7276    7277
    7275    7273    7276    7278    7275    7273    7276    7279
    7277    7276    7279    7280    7278    7276    7279    7280
    7281    7285    7286    7287    7281    7285    7286    7288
    7281    7285    7286    7289    7281    7285    7295    7292
    7281    7285    7295    7296    7282    7281    7285    7286
    7282    7281    7285    7295    7283    7281    7285    7286
    7283    7281    7285    7295    7284    7281    7285    7286
    7284    7281    7285    7295    7285    7286    7289    7290
    7285    7286    7289    7291    7285    7286    7289    7292
    7285    7295    7292    7289    7285    7295    7292    7293
    7285    7295    7292    7294    7286    7285    7295    7292
    7286    7285    7295    7296    7286    7289    7292    7293
    7286    7289    7292    7294    7286    7289    7292    7295
    7287    7286    7285    7295    7287    7286    7289    7290
    7287    7286    7289    7291    7287    7286    7289    7292
    7288    7286    7285    7295    7288    7286    7289    7290
    7288    7286    7289    7291    7288    7286    7289    7292
    7289    7286    7285    7295    7289    7292    7295    7296
    7290    7289    7292    7293    7290    7289    7292    7294
    7290    7289    7292    7295    7291    7289    7292    7293
    7291    7289    7292    7294    7291    7289    7292    7295
    7293    7292    7295    7296    7294    7292    7295    7296
    7297    7301    7302    7303    7297    7301    7302    7304
    7297    7301    7302    7305    7297    7301    7311    7308
    7297    7301    7311    7312    7298    7297    7301    7302
    7298    7297    7301    7311    7299    7297    7301    7302
    7299    7297    7301    7311    7300    7297    7301    7302
    7300    7297    7301    7311    7301    7302    7305    7306
    7301    7302    7305    7307    7301    7302    7305    7308
    7301    7311    7308    7305    7301    7311    7308    7309
    7301    7311    7308    7310    7302    7301    7311    7308
    7302    7301    7311    7312    7302    7305    7308    7309
    7302    7305    7308    7310    7302    7305    7308    7311
    7303    7302    7301    7311    7303    7302    7305    7306
    7303    7302    7305    7307    7303    7302    7305    7308
    7304    7302    7301    7311    7304    7302    7305    7306
    7304    7302    7305    7307    7304    7302    7305    7308
    7305    7302    7301    7311    7305    7308    7311    7312
    7306    7305    7308    7309    7306    7305    7308    7310
    7306    7305    7308    7311    7307    7305    7308    7309
    7307    7305    7308    7310    7307    7305    7308    7311
    7309    7308    7311    7312    7310    7308    7311    7312
    7313    7317    7318    7319    7313    7317    7318    7320
    7313    7317    7318    7321    7313    7317    7327    7324
    7313    7317    7327    7328    7314    7313    7317    7318
    7314    7313    7317    7327    7315    7313    7317    7318
    7315    7313    7317    7327    7316    7313    7317    7318
    7316    7313    7317    7327    7317    7318    7321    7322
    7317    7318    7321    7323    7317    7318    7321    7324
    7317    7327    7324    7321    7317    7327    7324    7325
    7317    7327    7324    7326    7318    7317    7327    7324
    7318    7317    7327    7328    7318    7321    7324    7325
    7318    7321    7324    7326    7318    7321    7324    7327
    7319    7318    7317    7327    7319    7318    7321    7322
    7319    7318    7321    7323    7319    7318    7321    7324
    7320    7318    7317    7327    7320    7318    7321    7322
    7320    7318    7321    7323    7320    7318    7321    7324
    7321    7318    7317    7327    7321    7324    7327    7328
    7322    7321    7324    7325    7322    7321    7324    7326
    7322    7321    7324    7327    7323    7321    7324    7325
    7323    7321    7324    7326    7323    7321    7324    7327
    7325    7324    7327    7328    7326    7324    7327    7328
    7329    7333    7334    7335    7329    7333    7334    7336
    7329    7333    7334    7337    7329    7333    7343    7340
    7329    7333    7343    7344    7330    7329    7333    7334
    7330    7329    7333    7343    7331    7329    7333    7334
    7331    7329    7333    7343    7332    7329    7333    7334
    7332    7329    7333    7343    7333    7334    7337    7338
    7333    7334    7337    7339    7333    7334    7337    7340
    7333    7343    7340    7337    7333    7343    7340    7341
    7333    7343    7340    7342    7334    7333    7343    7340
    7334    7333    7343    7344    7334    7337    7340    7341
    7334    7337    7340    7342    7334    7337    7340    7343
    7335    7334    7333    7343    7335    7334    7337    7338
    7335    7334    7337    7339    7335    7334    7337    7340
    7336    7334    7333    7343    7336    7334    7337    7338
    7336    7334    7337    7339    7336    7334    7337    7340
    7337    7334    7333    7343    7337    7340    7343    7344
    7338    7337    7340    7341    7338    7337    7340    7342
    7338    7337    7340    7343    7339    7337    7340    7341
    7339    7337    7340    7342    7339    7337    7340    7343
    7341    7340    7343    7344    7342    7340    7343    7344
    7345    7349    7350    7351    7345    7349    7350    7352
    7345    7349    7350    7353    7345    7349    7359    7356
    7345    7349    7359    7360    7346    7345    7349    7350
    7346    7345    7349    7359    7347    7345    7349    7350
    7347    7345    7349    7359    7348    7345    7349    7350
    7348    7345    7349    7359    7349    7350    7353    7354
    7349    7350    7353    7355    7349    7350    7353    7356
    7349    7359    7356    7353    7349    7359    7356    7357
    7349    7359    7356    7358    7350    7349    7359    7356
    7350    7349    7359    7360    7350    7353    7356    7357
    7350    7353    7356    7358    7350    7353    7356    7359
    7351    7350    7349    7359    7351    7350    7353    7354
    7351    7350    7353    7355    7351    7350    7353    7356
    7352    7350    7349    7359    7352    7350    7353    7354
    7352    7350    7353    7355    7352    7350    7353    7356
    7353    7350    7349    7359    7353    7356    7359    7360
    7354    7353    7356    7357    7354    7353    7356    7358
    7354    7353    7356    7359    7355    7353    7356    7357
    7355    7353    7356    7358    7355    7353    7356    7359
    7357    7356    7359    7360    7358    7356    7359    7360
    7361    7365    7366    7367    7361    7365    7366    7368
    7361    7365    7366    7369    7361    7365    7375    7372
    7361    7365    7375    7376    7362    7361    7365    7366
    7362    7361    7365    7375    7363    7361    7365    7366
    7363    7361    7365    7375    7364    7361    7365    7366
    7364    7361    7365    7375    7365    7366    7369    7370
    7365    7366    7369    7371    7365    7366    7369    7372
    7365    7375    7372    7369    7365    7375    7372    7373
    7365    7375    7372    7374    7366    7365    7375    7372
    7366    7365    7375    7376    7366    7369    7372    7373
    7366    7369    7372    7374    7366    7369    7372    7375
    7367    7366    7365    7375    7367    7366    7369    7370
    7367    7366    7369    7371    7367    7366    7369    7372
    7368    7366    7365    7375    7368    7366    7369    7370
    7368    7366    7369    7371    7368    7366    7369    7372
    7369    7366    7365    7375    7369    7372    7375    7376
    7370    7369    7372    7373    7370    7369    7372    7374
    7370    7369    7372    7375    7371    7369    7372    7373
    7371    7369    7372    7374    7371    7369    7372    7375
    7373    7372    7375    7376    7374    7372    7375    7376
    7377    7381    7382    7383    7377    7381    7382    7384
    7377    7381    7382    7385    7377    7381    7391    7388
    7377    7381    7391    7392    7378    7377    7381    7382
    7378    7377    7381    7391    7379    7377    7381    7382
    7379    7377    7381    7391    7380    7377    7381    7382
    7380    7377    7381    7391    7381    7382    7385    7386
    7381    7382    7385    7387    7381    7382    7385    7388
    7381    7391    7388    7385    7381    7391    7388    7389
    7381    7391    7388    7390    7382    7381    7391    7388
    7382    7381    7391    7392    7382    7385    7388    7389
    7382    7385    7388    7390    7382    7385    7388    7391
    7383    7382    7381    7391    7383    7382    7385    7386
    7383    7382    7385    7387    7383    7382    7385    7388
    7384    7382    7381    7391    7384    7382    7385    7386
    7384    7382    7385    7387    7384    7382    7385    7388
    7385    7382    7381    7391    7385    7388    7391    7392
    7386    7385    7388    7389    7386    7385    7388    7390
    7386    7385    7388    7391    7387    7385    7388    7389
    7387    7385    7388    7390    7387    7385    7388    7391
    7389    7388    7391    7392    7390    7388    7391    7392
    7393    7397    7398    7399    7393    7397    7398    7400
    7393    7397    7398    7401    7393    7397    7407    7404
    7393    7397    7407    7408    7394    7393    7397    7398
    7394    7393    7397    7407    7395    7393    7397    7398
    7395    7393    7397    7407    7396    7393    7397    7398
    7396    7393    7397    7407    7397    7398    7401    7402
    7397    7398    7401    7403    7397    7398    7401    7404
    7397    7407    7404    7401    7397    7407    7404    7405
    7397    7407    7404    7406    7398    7397    7407    7404
    7398    7397    7407    7408    7398    7401    7404    7405
    7398    7401    7404    7406    7398    7401    7404    7407
    7399    7398    7397    7407    7399    7398    7401    7402
    7399    7398    7401    7403    7399    7398    7401    7404
    7400    7398    7397    7407    7400    7398    7401    7402
    7400    7398    7401    7403    7400    7398    7401    7404
    7401    7398    7397    7407    7401    7404    7407    7408
    7402    7401    7404    7405    7402    7401    7404    7406
    7402    7401    7404    7407    7403    7401    7404    7405
    7403    7401    7404    7406    7403    7401    7404    7407
    7405    7404    7407    7408    7406    7404    7407    7408
    7409    7413    7414    7415    7409    7413    7414    7416
    7409    7413    7414    7417    7409    7413    7423    7420
    7409    7413    7423    7424    7410    7409    7413    7414
    7410    7409    7413    7423    7411    7409    7413    7414
    7411    7409    7413    7423    7412    7409    7413    7414
    7412    7409    7413    7423    7413    7414    7417    7418
    7413    7414    7417    7419    7413    7414    7417    7420
    7413    7423    7420    7417    7413    7423    7420    7421
    7413    7423    7420    7422    7414    7413    7423    7420
    7414    7413    7423    7424    7414    7417    7420    7421
    7414    7417    7420    7422    7414    7417    7420    7423
    7415    7414    7413    7423    7415    7414    7417    7418
    7415    7414    7417    7419    7415    7414    7417    7420
    7416    7414    7413    7423    7416    7414    7417    7418
    7416    7414    7417    7419    7416    7414    7417    7420
    7417    7414    7413    7423    7417    7420    7423    7424
    7418    7417    7420    7421    7418    7417    7420    7422
    7418    7417    7420    7423    7419    7417    7420    7421
    7419    7417    7420    7422    7419    7417    7420    7423
    7421    7420    7423    7424    7422    7420    7423    7424
    7425    7429    7430    7431    7425    7429    7430    7432
    7425    7429    7430    7433    7425    7429    7439    7436
    7425    7429    7439    7440    7426    7425    7429    7430
    7426    7425    7429    7439    7427    7425    7429    7430
    7427    7425    7429    7439    7428    7425    7429    7430
    7428    7425    7429    7439    7429    7430    7433    7434
    7429    7430    7433    7435    7429    7430    7433    7436
    7429    7439    7436    7433    7429    7439    7436    7437
    7429    7439    7436    7438    7430    7429    7439    7436
    7430    7429    7439    7440    7430    7433    7436    7437
    7430    7433    7436    7438    7430    7433    7436    7439
    7431    7430    7429    7439    7431    7430    7433    7434
    7431    7430    7433    7435    7431    7430    7433    7436
    7432    7430    7429    7439    7432    7430    7433    7434
    7432    7430    7433    7435    7432    7430    7433    7436
    7433    7430    7429    7439    7433    7436    7439    7440
    7434    7433    7436    7437    7434    7433    7436    7438
    7434    7433    7436    7439    7435    7433    7436    7437
    7435    7433    7436    7438    7435    7433    7436    7439
    7437    7436    7439    7440    7438    7436    7439    7440
    7441    7445    7446    7447    7441    7445    7446    7448
    7441    7445    7446    7449    7441    7445    7455    7452
    7441    7445    7455    7456    7442    7441    7445    7446
    7442    7441    7445    7455    7443    7441    7445    7446
    7443    7441    7445    7455    7444    7441    7445    7446
    7444    7441    7445    7455    7445    7446    7449    7450
    7445    7446    7449    7451    7445    7446    7449    7452
    7445    7455    7452    7449    7445    7455    7452    7453
    7445    7455    7452    7454    7446    7445    7455    7452
    7446    7445    7455    7456    7446    7449    7452    7453
    7446    7449    7452    7454    7446    7449    7452    7455
    7447    7446    7445    7455    7447    7446    7449    7450
    7447    7446    7449    7451    7447    7446    7449    7452
    7448    7446    7445    7455    7448    7446    7449    7450
    7448    7446    7449    7451    7448    7446    7449    7452
    7449    7446    7445    7455    7449    7452    7455    7456
    7450    7449    7452    7453    7450    7449    7452    7454
    7450    7449    7452    7455    7451    7449    7452    7453
    7451    7449    7452    7454    7451    7449    7452    7455
    7453    7452    7455    7456    7454    7452    7455    7456
    7457    7461    7462    7463    7457    7461    7462    7464
    7457    7461    7462    7465    7457    7461    7471    7468
    7457    7461    7471    7472    7458    7457    7461    7462
    7458    7457    7461    7471    7459    7457    7461    7462
    7459    7457    7461    7471    7460    7457    7461    7462
    7460    7457    7461    7471    7461    7462    7465    7466
    7461    7462    7465    7467    7461    7462    7465    7468
    7461    7471    7468    7465    7461    7471    7468    7469
    7461    7471    7468    7470    7462    7461    7471    7468
    7462    7461    7471    7472    7462    7465    7468    7469
    7462    7465    7468    7470    7462    7465    7468    7471
    7463    7462    7461    7471    7463    7462    7465    7466
    7463    7462    7465    7467    7463    7462    7465    7468
    7464    7462    7461    7471    7464    7462    7465    7466
    7464    7462    7465    7467    7464    7462    7465    7468
    7465    7462    7461    7471    7465    7468    7471    7472
    7466    7465    7468    7469    7466    7465    7468    7470
    7466    7465    7468    7471    7467    7465    7468    7469
    7467    7465    7468    7470    7467    7465    7468    7471
    7469    7468    7471    7472    7470    7468    7471    7472
    7473    7477    7478    7479    7473    7477    7478    7480
    7473    7477    7478    7481    7473    7477    7487    7484
    7473    7477    7487    7488    7474    7473    7477    7478
    7474    7473    7477    7487    7475    7473    7477    7478
    7475    7473    7477    7487    7476    7473    7477    7478
    7476    7473    7477    7487    7477    7478    7481    7482
    7477    7478    7481    7483    7477    7478    7481    7484
    7477    7487    7484    7481    7477    7487    7484    7485
    7477    7487    7484    7486    7478    7477    7487    7484
    7478    7477    7487    7488    7478    7481    7484    7485
    7478    7481    7484    7486    7478    7481    7484    7487
    7479    7478    7477    7487    7479    7478    7481    7482
    7479    7478    7481    7483    7479    7478    7481    7484
    7480    7478    7477    7487    7480    7478    7481    7482
    7480    7478    7481    7483    7480    7478    7481    7484
    7481    7478    7477    7487    7481    7484    7487    7488
    7482    7481    7484    7485    7482    7481    7484    7486
    7482    7481    7484    7487    7483    7481    7484    7485
    7483    7481    7484    7486    7483    7481    7484    7487
    7485    7484    7487    7488    7486    7484    7487    7488
    7489    7493    7494    7495    7489    7493    7494    7496
    7489    7493    7494    7497    7489    7493    7503    7500
    7489    7493    7503    7504    7490    7489    7493    7494
    7490    7489    7493    7503    7491    7489    7493    7494
    7491    7489    7493    7503    7492    7489    7493    7494
    7492    7489    7493    7503    7493    7494    7497    7498
    7493    7494    7497    7499    7493    7494    7497    7500
    7493    7503    7500    7497    7493    7503    7500    7501
    7493    7503    7500    7502    7494    7493    7503    7500
    7494    7493    7503    7504    7494    7497    7500    7501
    7494    7497    7500    7502    7494    7497    7500    7503
    7495    7494    7493    7503    7495    7494    7497    7498
    7495    7494    7497    7499    7495    7494    7497    7500
    7496    7494    7493    7503    7496    7494    7497    7498
    7496    7494    7497    7499    7496    7494    7497    7500
    7497    7494    7493    7503    7497    7500    7503    7504
    7498    7497    7500    7501    7498    7497    7500    7502
    7498    7497    7500    7503    7499    7497    7500    7501
    7499    7497    7500    7502    7499    7497    7500    7503
    7501    7500    7503    7504    7502    7500    7503    7504
    7505    7509    7510    7511    7505    7509    7510    7512
    7505    7509    7510    7513    7505    7509    7519    7516
    7505    7509    7519    7520    7506    7505    7509    7510
    7506    7505    7509    7519    7507    7505    7509    7510
    7507    7505    7509    7519    7508    7505    7509    7510
    7508    7505    7509    7519    7509    7510    7513    7514
    7509    7510    7513    7515    7509    7510    7513    7516
    7509    7519    7516    7513    7509    7519    7516    7517
    7509    7519    7516    7518    7510    7509    7519    7516
    7510    7509    7519    7520    7510    7513    7516    7517
    7510    7513    7516    7518    7510    7513    7516    7519
    7511    7510    7509    7519    7511    7510    7513    7514
    7511    7510    7513    7515    7511    7510    7513    7516
    7512    7510    7509    7519    7512    7510    7513    7514
    7512    7510    7513    7515    7512    7510    7513    7516
    7513    7510    7509    7519    7513    7516    7519    7520
    7514    7513    7516    7517    7514    7513    7516    7518
    7514    7513    7516    7519    7515    7513    7516    7517
    7515    7513    7516    7518    7515    7513    7516    7519
    7517    7516    7519    7520    7518    7516    7519    7520
    7521    7525    7526    7527    7521    7525    7526    7528
    7521    7525    7526    7529    7521    7525    7535    7532
    7521    7525    7535    7536    7522    7521    7525    7526
    7522    7521    7525    7535    7523    7521    7525    7526
    7523    7521    7525    7535    7524    7521    7525    7526
    7524    7521    7525    7535    7525    7526    7529    7530
    7525    7526    7529    7531    7525    7526    7529    7532
    7525    7535    7532    7529    7525    7535    7532    7533
    7525    7535    7532    7534    7526    7525    7535    7532
    7526    7525    7535    7536    7526    7529    7532    7533
    7526    7529    7532    7534    7526    7529    7532    7535
    7527    7526    7525    7535    7527    7526    7529    7530
    7527    7526    7529    7531    7527    7526    7529    7532
    7528    7526    7525    7535    7528    7526    7529    7530
    7528    7526    7529    7531    7528    7526    7529    7532
    7529    7526    7525    7535    7529    7532    7535    7536
    7530    7529    7532    7533    7530    7529    7532    7534
    7530    7529    7532    7535    7531    7529    7532    7533
    7531    7529    7532    7534    7531    7529    7532    7535
    7533    7532    7535    7536    7534    7532    7535    7536
    7537    7541    7542    7543    7537    7541    7542    7544
    7537    7541    7542    7545    7537    7541    7551    7548
    7537    7541    7551    7552    7538    7537    7541    7542
    7538    7537    7541    7551    7539    7537    7541    7542
    7539    7537    7541    7551    7540    7537    7541    7542
    7540    7537    7541    7551    7541    7542    7545    7546
    7541    7542    7545    7547    7541    7542    7545    7548
    7541    7551    7548    7545    7541    7551    7548    7549
    7541    7551    7548    7550    7542    7541    7551    7548
    7542    7541    7551    7552    7542    7545    7548    7549
    7542    7545    7548    7550    7542    7545    7548    7551
    7543    7542    7541    7551    7543    7542    7545    7546
    7543    7542    7545    7547    7543    7542    7545    7548
    7544    7542    7541    7551    7544    7542    7545    7546
    7544    7542    7545    7547    7544    7542    7545    7548
    7545    7542    7541    7551    7545    7548    7551    7552
    7546    7545    7548    7549    7546    7545    7548    7550
    7546    7545    7548    7551    7547    7545    7548    7549
    7547    7545    7548    7550    7547    7545    7548    7551
    7549    7548    7551    7552    7550    7548    7551    7552
    7553    7557    7558    7559    7553    7557    7558    7560
    7553    7557    7558    7561    7553    7557    7567    7564
    7553    7557    7567    7568    7554    7553    7557    7558
    7554    7553    7557    7567    7555    7553    7557    7558
    7555    7553    7557    7567    7556    7553    7557    7558
    7556    7553    7557    7567    7557    7558    7561    7562
    7557    7558    7561    7563    7557    7558    7561    7564
    7557    7567    7564    7561    7557    7567    7564    7565
    7557    7567    7564    7566    7558    7557    7567    7564
    7558    7557    7567    7568    7558    7561    7564    7565
    7558    7561    7564    7566    7558    7561    7564    7567
    7559    7558    7557    7567    7559    7558    7561    7562
    7559    7558    7561    7563    7559    7558    7561    7564
    7560    7558    7557    7567    7560    7558    7561    7562
    7560    7558    7561    7563    7560    7558    7561    7564
    7561    7558    7557    7567    7561    7564    7567    7568
    7562    7561    7564    7565    7562    7561    7564    7566
    7562    7561    7564    7567    7563    7561    7564    7565
    7563    7561    7564    7566    7563    7561    7564    7567
    7565    7564    7567    7568    7566    7564    7567    7568
    7569    7573    7574    7575    7569    7573    7574    7576
    7569    7573    7574    7577    7569    7573    7583    7580
    7569    7573    7583    7584    7570    7569    7573    7574
    7570    7569    7573    7583    7571    7569    7573    7574
    7571    7569    7573    7583    7572    7569    7573    7574
    7572    7569    7573    7583    7573    7574    7577    7578
    7573    7574    7577    7579    7573    7574    7577    7580
    7573    7583    7580    7577    7573    7583    7580    7581
    7573    7583    7580    7582    7574    7573    7583    7580
    7574    7573    7583    7584    7574    7577    7580    7581
    7574    7577    7580    7582    7574    7577    7580    7583
    7575    7574    7573    7583    7575    7574    7577    7578
    7575    7574    7577    7579    7575    7574    7577    7580
    7576    7574    7573    7583    7576    7574    7577    7578
    7576    7574    7577    7579    7576    7574    7577    7580
    7577    7574    7573    7583    7577    7580    7583    7584
    7578    7577    7580    7581    7578    7577    7580    7582
    7578    7577    7580    7583    7579    7577    7580    7581
    7579    7577    7580    7582    7579    7577    7580    7583
    7581    7580    7583    7584    7582    7580    7583    7584
    7585    7589    7590    7591    7585    7589    7590    7592
    7585    7589    7590    7593    7585    7589    7599    7596
    7585    7589    7599    7600    7586    7585    7589    7590
    7586    7585    7589    7599    7587    7585    7589    7590
    7587    7585    7589    7599    7588    7585    7589    7590
    7588    7585    7589    7599    7589    7590    7593    7594
    7589    7590    7593    7595    7589    7590    7593    7596
    7589    7599    7596    7593    7589    7599    7596    7597
    7589    7599    7596    7598    7590    7589    7599    7596
    7590    7589    7599    7600    7590    7593    7596    7597
    7590    7593    7596    7598    7590    7593    7596    7599
    7591    7590    7589    7599    7591    7590    7593    7594
    7591    7590    7593    7595    7591    7590    7593    7596
    7592    7590    7589    7599    7592    7590    7593    7594
    7592    7590    7593    7595    7592    7590    7593    7596
    7593    7590    7589    7599    7593    7596    7599    7600
    7594    7593    7596    7597    7594    7593    7596    7598
    7594    7593    7596    7599    7595    7593    7596    7597
    7595    7593    7596    7598    7595    7593    7596    7599
    7597    7596    7599    7600    7598    7596    7599    7600
    7601    7605    7606    7607    7601    7605    7606    7608
    7601    7605    7606    7609    7601    7605    7615    7612
    7601    7605    7615    7616    7602    7601    7605    7606
    7602    7601    7605    7615    7603    7601    7605    7606
    7603    7601    7605    7615    7604    7601    7605    7606
    7604    7601    7605    7615    7605    7606    7609    7610
    7605    7606    7609    7611    7605    7606    7609    7612
    7605    7615    7612    7609    7605    7615    7612    7613
    7605    7615    7612    7614    7606    7605    7615    7612
    7606    7605    7615    7616    7606    7609    7612    7613
    7606    7609    7612    7614    7606    7609    7612    7615
    7607    7606    7605    7615    7607    7606    7609    7610
    7607    7606    7609    7611    7607    7606    7609    7612
    7608    7606    7605    7615    7608    7606    7609    7610
    7608    7606    7609    7611    7608    7606    7609    7612
    7609    7606    7605    7615    7609    7612    7615    7616
    7610    7609    7612    7613    7610    7609    7612    7614
    7610    7609    7612    7615    7611    7609    7612    7613
    7611    7609    7612    7614    7611    7609    7612    7615
    7613    7612    7615    7616    7614    7612    7615    7616
    7617    7621    7622    7623    7617    7621    7622    7624
    7617    7621    7622    7625    7617    7621    7631    7628
    7617    7621    7631    7632    7618    7617    7621    7622
    7618    7617    7621    7631    7619    7617    7621    7622
    7619    7617    7621    7631    7620    7617    7621    7622
    7620    7617    7621    7631    7621    7622    7625    7626
    7621    7622    7625    7627    7621    7622    7625    7628
    7621    7631    7628    7625    7621    7631    7628    7629
    7621    7631    7628    7630    7622    7621    7631    7628
    7622    7621    7631    7632    7622    7625    7628    7629
    7622    7625    7628    7630    7622    7625    7628    7631
    7623    7622    7621    7631    7623    7622    7625    7626
    7623    7622    7625    7627    7623    7622    7625    7628
    7624    7622    7621    7631    7624    7622    7625    7626
    7624    7622    7625    7627    7624    7622    7625    7628
    7625    7622    7621    7631    7625    7628    7631    7632
    7626    7625    7628    7629    7626    7625    7628    7630
    7626    7625    7628    7631    7627    7625    7628    7629
    7627    7625    7628    7630    7627    7625    7628    7631
    7629    7628    7631    7632    7630    7628    7631    7632
    7633    7637    7638    7639    7633    7637    7638    7640
    7633    7637    7638    7641    7633    7637    7647    7644
    7633    7637    7647    7648    7634    7633    7637    7638
    7634    7633    7637    7647    7635    7633    7637    7638
    7635    7633    7637    7647    7636    7633    7637    7638
    7636    7633    7637    7647    7637    7638    7641    7642
    7637    7638    7641    7643    7637    7638    7641    7644
    7637    7647    7644    7641    7637    7647    7644    7645
    7637    7647    7644    7646    7638    7637    7647    7644
    7638    7637    7647    7648    7638    7641    7644    7645
    7638    7641    7644    7646    7638    7641    7644    7647
    7639    7638    7637    7647    7639    7638    7641    7642
    7639    7638    7641    7643    7639    7638    7641    7644
    7640    7638    7637    7647    7640    7638    7641    7642
    7640    7638    7641    7643    7640    7638    7641    7644
    7641    7638    7637    7647    7641    7644    7647    7648
    7642    7641    7644    7645    7642    7641    7644    7646
    7642    7641    7644    7647    7643    7641    7644    7645
    7643    7641    7644    7646    7643    7641    7644    7647
    7645    7644    7647    7648    7646    7644    7647    7648
    7649    7653    7654    7655    7649    7653    7654    7656
    7649    7653    7654    7657    7649    7653    7663    7660
    7649    7653    7663    7664    7650    7649    7653    7654
    7650    7649    7653    7663    7651    7649    7653    7654
    7651    7649    7653    7663    7652    7649    7653    7654
    7652    7649    7653    7663    7653    7654    7657    7658
    7653    7654    7657    7659    7653    7654    7657    7660
    7653    7663    7660    7657    7653    7663    7660    7661
    7653    7663    7660    7662    7654    7653    7663    7660
    7654    7653    7663    7664    7654    7657    7660    7661
    7654    7657    7660    7662    7654    7657    7660    7663
    7655    7654    7653    7663    7655    7654    7657    7658
    7655    7654    7657    7659    7655    7654    7657    7660
    7656    7654    7653    7663    7656    7654    7657    7658
    7656    7654    7657    7659    7656    7654    7657    7660
    7657    7654    7653    7663    7657    7660    7663    7664
    7658    7657    7660    7661    7658    7657    7660    7662
    7658    7657    7660    7663    7659    7657    7660    7661
    7659    7657    7660    7662    7659    7657    7660    7663
    7661    7660    7663    7664    7662    7660    7663    7664
    7665    7669    7670    7671    7665    7669    7670    7672
    7665    7669    7670    7673    7665    7669    7679    7676
    7665    7669    7679    7680    7666    7665    7669    7670
    7666    7665    7669    7679    7667    7665    7669    7670
    7667    7665    7669    7679    7668    7665    7669    7670
    7668    7665    7669    7679    7669    7670    7673    7674
    7669    7670    7673    7675    7669    7670    7673    7676
    7669    7679    7676    7673    7669    7679    7676    7677
    7669    7679    7676    7678    7670    7669    7679    7676
    7670    7669    7679    7680    7670    7673    7676    7677
    7670    7673    7676    7678    7670    7673    7676    7679
    7671    7670    7669    7679    7671    7670    7673    7674
    7671    7670    7673    7675    7671    7670    7673    7676
    7672    7670    7669    7679    7672    7670    7673    7674
    7672    7670    7673    7675    7672    7670    7673    7676
    7673    7670    7669    7679    7673    7676    7679    7680
    7674    7673    7676    7677    7674    7673    7676    7678
    7674    7673    7676    7679    7675    7673    7676    7677
    7675    7673    7676    7678    7675    7673    7676    7679
    7677    7676    7679    7680    7678    7676    7679    7680
    7681    7685    7686    7687    7681    7685    7686    7688
    7681    7685    7686    7689    7681    7685    7695    7692
    7681    7685    7695    7696    7682    7681    7685    7686
    7682    7681    7685    7695    7683    7681    7685    7686
    7683    7681    7685    7695    7684    7681    7685    7686
    7684    7681    7685    7695    7685    7686    7689    7690
    7685    7686    7689    7691    7685    7686    7689    7692
    7685    7695    7692    7689    7685    7695    7692    7693
    7685    7695    7692    7694    7686    7685    7695    7692
    7686    7685    7695    7696    7686    7689    7692    7693
    7686    7689    7692    7694    7686    7689    7692    7695
    7687    7686    7685    7695    7687    7686    7689    7690
    7687    7686    7689    7691    7687    7686    7689    7692
    7688    7686    7685    7695    7688    7686    7689    7690
    7688    7686    7689    7691    7688    7686    7689    7692
    7689    7686    7685    7695    7689    7692    7695    7696
    7690    7689    7692    7693    7690    7689    7692    7694
    7690    7689    7692    7695    7691    7689    7692    7693
    7691    7689    7692    7694    7691    7689    7692    7695
    7693    7692    7695    7696    7694    7692    7695    7696
    7697    7701    7702    7703    7697    7701    7702    7704
    7697    7701    7702    7705    7697    7701    7711    7708
    7697    7701    7711    7712    7698    7697    7701    7702
    7698    7697    7701    7711    7699    7697    7701    7702
    7699    7697    7701    7711    7700    7697    7701    7702
    7700    7697    7701    7711    7701    7702    7705    7706
    7701    7702    7705    7707    7701    7702    7705    7708
    7701    7711    7708    7705    7701    7711    7708    7709
    7701    7711    7708    7710    7702    7701    7711    7708
    7702    7701    7711    7712    7702    7705    7708    7709
    7702    7705    7708    7710    7702    7705    7708    7711
    7703    7702    7701    7711    7703    7702    7705    7706
    7703    7702    7705    7707    7703    7702    7705    7708
    7704    7702    7701    7711    7704    7702    7705    7706
    7704    7702    7705    7707    7704    7702    7705    7708
    7705    7702    7701    7711    7705    7708    7711    7712
    7706    7705    7708    7709    7706    7705    7708    7710
    7706    7705    7708    7711    7707    7705    7708    7709
    7707    7705    7708    7710    7707    7705    7708    7711
    7709    7708    7711    7712    7710    7708    7711    7712
    7713    7717    7718    7719    7713    7717    7718    7720
    7713    7717    7718    7721    7713    7717    7727    7724
    7713    7717    7727    7728    7714    7713    7717    7718
    7714    7713    7717    7727    7715    7713    7717    7718
    7715    7713    7717    7727    7716    7713    7717    7718
    7716    7713    7717    7727    7717    7718    7721    7722
    7717    7718    7721    7723    7717    7718    7721    7724
    7717    7727    7724    7721    7717    7727    7724    7725
    7717    7727    7724    7726    7718    7717    7727    7724
    7718    7717    7727    7728    7718    7721    7724    7725
    7718    7721    7724    7726    7718    7721    7724    7727
    7719    7718    7717    7727    7719    7718    7721    7722
    7719    7718    7721    7723    7719    7718    7721    7724
    7720    7718    7717    7727    7720    7718    7721    7722
    7720    7718    7721    7723    7720    7718    7721    7724
    7721    7718    7717    7727    7721    7724    7727    7728
    7722    7721    7724    7725    7722    7721    7724    7726
    7722    7721    7724    7727    7723    7721    7724    7725
    7723    7721    7724    7726    7723    7721    7724    7727
    7725    7724    7727    7728    7726    7724    7727    7728
    7729    7733    7734    7735    7729    7733    7734    7736
    7729    7733    7734    7737    7729    7733    7743    7740
    7729    7733    7743    7744    7730    7729    7733    7734
    7730    7729    7733    7743    7731    7729    7733    7734
    7731    7729    7733    7743    7732    7729    7733    7734
    7732    7729    7733    7743    7733    7734    7737    7738
    7733    7734    7737    7739    7733    7734    7737    7740
    7733    7743    7740    7737    7733    7743    7740    7741
    7733    7743    7740    7742    7734    7733    7743    7740
    7734    7733    7743    7744    7734    7737    7740    7741
    7734    7737    7740    7742    7734    7737    7740    7743
    7735    7734    7733    7743    7735    7734    7737    7738
    7735    7734    7737    7739    7735    7734    7737    7740
    7736    7734    7733    7743    7736    7734    7737    7738
    7736    7734    7737    7739    7736    7734    7737    7740
    7737    7734    7733    7743    7737    7740    7743    7744
    7738    7737    7740    7741    7738    7737    7740    7742
    7738    7737    7740    7743    7739    7737    7740    7741
    7739    7737    7740    7742    7739    7737    7740    7743
    7741    7740    7743    7744    7742    7740    7743    7744
    7745    7749    7750    7751    7745    7749    7750    7752
    7745    7749    7750    7753    7745    7749    7759    7756
    7745    7749    7759    7760    7746    7745    7749    7750
    7746    7745    7749    7759    7747    7745    7749    7750
    7747    7745    7749    7759    7748    7745    7749    7750
    7748    7745    7749    7759    7749    7750    7753    7754
    7749    7750    7753    7755    7749    7750    7753    7756
    7749    7759    7756    7753    7749    7759    7756    7757
    7749    7759    7756    7758    7750    7749    7759    7756
    7750    7749    7759    7760    7750    7753    7756    7757
    7750    7753    7756    7758    7750    7753    7756    7759
    7751    7750    7749    7759    7751    7750    7753    7754
    7751    7750    7753    7755    7751    7750    7753    7756
    7752    7750    7749    7759    7752    7750    7753    7754
    7752    7750    7753    7755    7752    7750    7753    7756
    7753    7750    7749    7759    7753    7756    7759    7760
    7754    7753    7756    7757    7754    7753    7756    7758
    7754    7753    7756    7759    7755    7753    7756    7757
    7755    7753    7756    7758    7755    7753    7756    7759
    7757    7756    7759    7760    7758    7756    7759    7760
    7761    7765    7766    7767    7761    7765    7766    7768
    7761    7765    7766    7769    7761    7765    7775    7772
    7761    7765    7775    7776    7762    7761    7765    7766
    7762    7761    7765    7775    7763    7761    7765    7766
    7763    7761    7765    7775    7764    7761    7765    7766
    7764    7761    7765    7775    7765    7766    7769    7770
    7765    7766    7769    7771    7765    7766    7769    7772
    7765    7775    7772    7769    7765    7775    7772    7773
    7765    7775    7772    7774    7766    7765    7775    7772
    7766    7765    7775    7776    7766    7769    7772    7773
    7766    7769    7772    7774    7766    7769    7772    7775
    7767    7766    7765    7775    7767    7766    7769    7770
    7767    7766    7769    7771    7767    7766    7769    7772
    7768    7766    7765    7775    7768    7766    7769    7770
    7768    7766    7769    7771    7768    7766    7769    7772
    7769    7766    7765    7775    7769    7772    7775    7776
    7770    7769    7772    7773    7770    7769    7772    7774
    7770    7769    7772    7775    7771    7769    7772    7773
    7771    7769    7772    7774    7771    7769    7772    7775
    7773    7772    7775    7776    7774    7772    7775    7776
    7777    7781    7782    7783    7777    7781    7782    7784
    7777    7781    7782    7785    7777    7781    7791    7788
    7777    7781    7791    7792    7778    7777    7781    7782
    7778    7777    7781    7791    7779    7777    7781    7782
    7779    7777    7781    7791    7780    7777    7781    7782
    7780    7777    7781    7791    7781    7782    7785    7786
    7781    7782    7785    7787    7781    7782    7785    7788
    7781    7791    7788    7785    7781    7791    7788    7789
    7781    7791    7788    7790    7782    7781    7791    7788
    7782    7781    7791    7792    7782    7785    7788    7789
    7782    7785    7788    7790    7782    7785    7788    7791
    7783    7782    7781    7791    7783    7782    7785    7786
    7783    7782    7785    7787    7783    7782    7785    7788
    7784    7782    7781    7791    7784    7782    7785    7786
    7784    7782    7785    7787    7784    7782    7785    7788
    7785    7782    7781    7791    7785    7788    7791    7792
    7786    7785    7788    7789    7786    7785    7788    7790
    7786    7785    7788    7791    7787    7785    7788    7789
    7787    7785    7788    7790    7787    7785    7788    7791
    7789    7788    7791    7792    7790    7788    7791    7792
    7793    7797    7798    7799    7793    7797    7798    7800
    7793    7797    7798    7801    7793    7797    7807    7804
    7793    7797    7807    7808    7794    7793    7797    7798
    7794    7793    7797    7807    7795    7793    7797    7798
    7795    7793    7797    7807    7796    7793    7797    7798
    7796    7793    7797    7807    7797    7798    7801    7802
    7797    7798    7801    7803    7797    7798    7801    7804
    7797    7807    7804    7801    7797    7807    7804    7805
    7797    7807    7804    7806    7798    7797    7807    7804
    7798    7797    7807    7808    7798    7801    7804    7805
    7798    7801    7804    7806    7798    7801    7804    7807
    7799    7798    7797    7807    7799    7798    7801    7802
    7799    7798    7801    7803    7799    7798    7801    7804
    7800    7798    7797    7807    7800    7798    7801    7802
    7800    7798    7801    7803    7800    7798    7801    7804
    7801    7798    7797    7807    7801    7804    7807    7808
    7802    7801    7804    7805    7802    7801    7804    7806
    7802    7801    7804    7807    7803    7801    7804    7805
    7803    7801    7804    7806    7803    7801    7804    7807
    7805    7804    7807    7808    7806    7804    7807    7808
    7809    7813    7814    7815    7809    7813    7814    7816
    7809    7813    7814    7817    7809    7813    7823    7820
    7809    7813    7823    7824    7810    7809    7813    7814
    7810    7809    7813    7823    7811    7809    7813    7814
    7811    7809    7813    7823    7812    7809    7813    7814
    7812    7809    7813    7823    7813    7814    7817    7818
    7813    7814    7817    7819    7813    7814    7817    7820
    7813    7823    7820    7817    7813    7823    7820    7821
    7813    7823    7820    7822    7814    7813    7823    7820
    7814    7813    7823    7824    7814    7817    7820    7821
    7814    7817    7820    7822    7814    7817    7820    7823
    7815    7814    7813    7823    7815    7814    7817    7818
    7815    7814    7817    7819    7815    7814    7817    7820
    7816    7814    7813    7823    7816    7814    7817    7818
    7816    7814    7817    7819    7816    7814    7817    7820
    7817    7814    7813    7823    7817    7820    7823    7824
    7818    7817    7820    7821    7818    7817    7820    7822
    7818    7817    7820    7823    7819    7817    7820    7821
    7819    7817    7820    7822    7819    7817    7820    7823
    7821    7820    7823    7824    7822    7820    7823    7824
    7825    7829    7830    7831    7825    7829    7830    7832
    7825    7829    7830    7833    7825    7829    7839    7836
    7825    7829    7839    7840    7826    7825    7829    7830
    7826    7825    7829    7839    7827    7825    7829    7830
    7827    7825    7829    7839    7828    7825    7829    7830
    7828    7825    7829    7839    7829    7830    7833    7834
    7829    7830    7833    7835    7829    7830    7833    7836
    7829    7839    7836    7833    7829    7839    7836    7837
    7829    7839    7836    7838    7830    7829    7839    7836
    7830    7829    7839    7840    7830    7833    7836    7837
    7830    7833    7836    7838    7830    7833    7836    7839
    7831    7830    7829    7839    7831    7830    7833    7834
    7831    7830    7833    7835    7831    7830    7833    7836
    7832    7830    7829    7839    7832    7830    7833    7834
    7832    7830    7833    7835    7832    7830    7833    7836
    7833    7830    7829    7839    7833    7836    7839    7840
    7834    7833    7836    7837    7834    7833    7836    7838
    7834    7833    7836    7839    7835    7833    7836    7837
    7835    7833    7836    7838    7835    7833    7836    7839
    7837    7836    7839    7840    7838    7836    7839    7840
    7841    7845    7846    7847    7841    7845    7846    7848
    7841    7845    7846    7849    7841    7845    7855    7852
    7841    7845    7855    7856    7842    7841    7845    7846
    7842    7841    7845    7855    7843    7841    7845    7846
    7843    7841    7845    7855    7844    7841    7845    7846
    7844    7841    7845    7855    7845    7846    7849    7850
    7845    7846    7849    7851    7845    7846    7849    7852
    7845    7855    7852    7849    7845    7855    7852    7853
    7845    7855    7852    7854    7846    7845    7855    7852
    7846    7845    7855    7856    7846    7849    7852    7853
    7846    7849    7852    7854    7846    7849    7852    7855
    7847    7846    7845    7855    7847    7846    7849    7850
    7847    7846    7849    7851    7847    7846    7849    7852
    7848    7846    7845    7855    7848    7846    7849    7850
    7848    7846    7849    7851    7848    7846    7849    7852
    7849    7846    7845    7855    7849    7852    7855    7856
    7850    7849    7852    7853    7850    7849    7852    7854
    7850    7849    7852    7855    7851    7849    7852    7853
    7851    7849    7852    7854    7851    7849    7852    7855
    7853    7852    7855    7856    7854    7852    7855    7856
    7857    7861    7862    7863    7857    7861    7862    7864
    7857    7861    7862    7865    7857    7861    7871    7868
    7857    7861    7871    7872    7858    7857    7861    7862
    7858    7857    7861    7871    7859    7857    7861    7862
    7859    7857    7861    7871    7860    7857    7861    7862
    7860    7857    7861    7871    7861    7862    7865    7866
    7861    7862    7865    7867    7861    7862    7865    7868
    7861    7871    7868    7865    7861    7871    7868    7869
    7861    7871    7868    7870    7862    7861    7871    7868
    7862    7861    7871    7872    7862    7865    7868    7869
    7862    7865    7868    7870    7862    7865    7868    7871
    7863    7862    7861    7871    7863    7862    7865    7866
    7863    7862    7865    7867    7863    7862    7865    7868
    7864    7862    7861    7871    7864    7862    7865    7866
    7864    7862    7865    7867    7864    7862    7865    7868
    7865    7862    7861    7871    7865    7868    7871    7872
    7866    7865    7868    7869    7866    7865    7868    7870
    7866    7865    7868    7871    7867    7865    7868    7869
    7867    7865    7868    7870    7867    7865    7868    7871
    7869    7868    7871    7872    7870    7868    7871    7872
    7873    7877    7878    7879    7873    7877    7878    7880
    7873    7877    7878    7881    7873    7877    7887    7884
    7873    7877    7887    7888    7874    7873    7877    7878
    7874    7873    7877    7887    7875    7873    7877    7878
    7875    7873    7877    7887    7876    7873    7877    7878
    7876    7873    7877    7887    7877    7878    7881    7882
    7877    7878    7881    7883    7877    7878    7881    7884
    7877    7887    7884    7881    7877    7887    7884    7885
    7877    7887    7884    7886    7878    7877    7887    7884
    7878    7877    7887    7888    7878    7881    7884    7885
    7878    7881    7884    7886    7878    7881    7884    7887
    7879    7878    7877    7887    7879    7878    7881    7882
    7879    7878    7881    7883    7879    7878    7881    7884
    7880    7878    7877    7887    7880    7878    7881    7882
    7880    7878    7881    7883    7880    7878    7881    7884
    7881    7878    7877    7887    7881    7884    7887    7888
    7882    7881    7884    7885    7882    7881    7884    7886
    7882    7881    7884    7887    7883    7881    7884    7885
    7883    7881    7884    7886    7883    7881    7884    7887
    7885    7884    7887    7888    7886    7884    7887    7888
    7889    7893    7894    7895    7889    7893    7894    7896
    7889    7893    7894    7897    7889    7893    7903    7900
    7889    7893    7903    7904    7890    7889    7893    7894
    7890    7889    7893    7903    7891    7889    7893    7894
    7891    7889    7893    7903    7892    7889    7893    7894
    7892    7889    7893    7903    7893    7894    7897    7898
    7893    7894    7897    7899    7893    7894    7897    7900
    7893    7903    7900    7897    7893    7903    7900    7901
    7893    7903    7900    7902    7894    7893    7903    7900
    7894    7893    7903    7904    7894    7897    7900    7901
    7894    7897    7900    7902    7894    7897    7900    7903
    7895    7894    7893    7903    7895    7894    7897    7898
    7895    7894    7897    7899    7895    7894    7897    7900
    7896    7894    7893    7903    7896    7894    7897    7898
    7896    7894    7897    7899    7896    7894    7897    7900
    7897    7894    7893    7903    7897    7900    7903    7904
    7898    7897    7900    7901    7898    7897    7900    7902
    7898    7897    7900    7903    7899    7897    7900    7901
    7899    7897    7900    7902    7899    7897    7900    7903
    7901    7900    7903    7904    7902    7900    7903    7904
    7905    7909    7910    7911    7905    7909    7910    7912
    7905    7909    7910    7913    7905    7909    7919    7916
    7905    7909    7919    7920    7906    7905    7909    7910
    7906    7905    7909    7919    7907    7905    7909    7910
    7907    7905    7909    7919    7908    7905    7909    7910
    7908    7905    7909    7919    7909    7910    7913    7914
    7909    7910    7913    7915    7909    7910    7913    7916
    7909    7919    7916    7913    7909    7919    7916    7917
    7909    7919    7916    7918    7910    7909    7919    7916
    7910    7909    7919    7920    7910    7913    7916    7917
    7910    7913    7916    7918    7910    7913    7916    7919
    7911    7910    7909    7919    7911    7910    7913    7914
    7911    7910    7913    7915    7911    7910    7913    7916
    7912    7910    7909    7919    7912    7910    7913    7914
    7912    7910    7913    7915    7912    7910    7913    7916
    7913    7910    7909    7919    7913    7916    7919    7920
    7914    7913    7916    7917    7914    7913    7916    7918
    7914    7913    7916    7919    7915    7913    7916    7917
    7915    7913    7916    7918    7915    7913    7916    7919
    7917    7916    7919    7920    7918    7916    7919    7920
    7921    7925    7926    7927    7921    7925    7926    7928
    7921    7925    7926    7929    7921    7925    7935    7932
    7921    7925    7935    7936    7922    7921    7925    7926
    7922    7921    7925    7935    7923    7921    7925    7926
    7923    7921    7925    7935    7924    7921    7925    7926
    7924    7921    7925    7935    7925    7926    7929    7930
    7925    7926    7929    7931    7925    7926    7929    7932
    7925    7935    7932    7929    7925    7935    7932    7933
    7925    7935    7932    7934    7926    7925    7935    7932
    7926    7925    7935    7936    7926    7929    7932    7933
    7926    7929    7932    7934    7926    7929    7932    7935
    7927    7926    7925    7935    7927    7926    7929    7930
    7927    7926    7929    7931    7927    7926    7929    7932
    7928    7926    7925    7935    7928    7926    7929    7930
    7928    7926    7929    7931    7928    7926    7929    7932
    7929    7926    7925    7935    7929    7932    7935    7936
    7930    7929    7932    7933    7930    7929    7932    7934
    7930    7929    7932    7935    7931    7929    7932    7933
    7931    7929    7932    7934    7931    7929    7932    7935
    7933    7932    7935    7936    7934    7932    7935    7936
    7937    7941    7942    7943    7937    7941    7942    7944
    7937    7941    7942    7945    7937    7941    7951    7948
    7937    7941    7951    7952    7938    7937    7941    7942
    7938    7937    7941    7951    7939    7937    7941    7942
    7939    7937    7941    7951    7940    7937    7941    7942
    7940    7937    7941    7951    7941    7942    7945    7946
    7941    7942    7945    7947    7941    7942    7945    7948
    7941    7951    7948    7945    7941    7951    7948    7949
    7941    7951    7948    7950    7942    7941    7951    7948
    7942    7941    7951    7952    7942    7945    7948    7949
    7942    7945    7948    7950    7942    7945    7948    7951
    7943    7942    7941    7951    7943    7942    7945    7946
    7943    7942    7945    7947    7943    7942    7945    7948
    7944    7942    7941    7951    7944    7942    7945    7946
    7944    7942    7945    7947    7944    7942    7945    7948
    7945    7942    7941    7951    7945    7948    7951    7952
    7946    7945    7948    7949    7946    7945    7948    7950
    7946    7945    7948    7951    7947    7945    7948    7949
    7947    7945    7948    7950    7947    7945    7948    7951
    7949    7948    7951    7952    7950    7948    7951    7952
    7953    7957    7958    7959    7953    7957    7958    7960
    7953    7957    7958    7961    7953    7957    7967    7964
    7953    7957    7967    7968    7954    7953    7957    7958
    7954    7953    7957    7967    7955    7953    7957    7958
    7955    7953    7957    7967    7956    7953    7957    7958
    7956    7953    7957    7967    7957    7958    7961    7962
    7957    7958    7961    7963    7957    7958    7961    7964
    7957    7967    7964    7961    7957    7967    7964    7965
    7957    7967    7964    7966    7958    7957    7967    7964
    7958    7957    7967    7968    7958    7961    7964    7965
    7958    7961    7964    7966    7958    7961    7964    7967
    7959    7958    7957    7967    7959    7958    7961    7962
    7959    7958    7961    7963    7959    7958    7961    7964
    7960    7958    7957    7967    7960    7958    7961    7962
    7960    7958    7961    7963    7960    7958    7961    7964
    7961    7958    7957    7967    7961    7964    7967    7968
    7962    7961    7964    7965    7962    7961    7964    7966
    7962    7961    7964    7967    7963    7961    7964    7965
    7963    7961    7964    7966    7963    7961    7964    7967
    7965    7964    7967    7968    7966    7964    7967    7968
    7969    7973    7974    7975    7969    7973    7974    7976
    7969    7973    7974    7977    7969    7973    7983    7980
    7969    7973    7983    7984    7970    7969    7973    7974
    7970    7969    7973    7983    7971    7969    7973    7974
    7971    7969    7973    7983    7972    7969    7973    7974
    7972    7969    7973    7983    7973    7974    7977    7978
    7973    7974    7977    7979    7973    7974    7977    7980
    7973    7983    7980    7977    7973    7983    7980    7981
    7973    7983    7980    7982    7974    7973    7983    7980
    7974    7973    7983    7984    7974    7977    7980    7981
    7974    7977    7980    7982    7974    7977    7980    7983
    7975    7974    7973    7983    7975    7974    7977    7978
    7975    7974    7977    7979    7975    7974    7977    7980
    7976    7974    7973    7983    7976    7974    7977    7978
    7976    7974    7977    7979    7976    7974    7977    7980
    7977    7974    7973    7983    7977    7980    7983    7984
    7978    7977    7980    7981    7978    7977    7980    7982
    7978    7977    7980    7983    7979    7977    7980    7981
    7979    7977    7980    7982    7979    7977    7980    7983
    7981    7980    7983    7984    7982    7980    7983    7984
    7985    7989    7990    7991    7985    7989    7990    7992
    7985    7989    7990    7993    7985    7989    7999    7996
    7985    7989    7999    8000    7986    7985    7989    7990
    7986    7985    7989    7999    7987    7985    7989    7990
    7987    7985    7989    7999    7988    7985    7989    7990
    7988    7985    7989    7999    7989    7990    7993    7994
    7989    7990    7993    7995    7989    7990    7993    7996
    7989    7999    7996    7993    7989    7999    7996    7997
    7989    7999    7996    7998    7990    7989    7999    7996
    7990    7989    7999    8000    7990    7993    7996    7997
    7990    7993    7996    7998    7990    7993    7996    7999
    7991    7990    7989    7999    7991    7990    7993    7994
    7991    7990    7993    7995    7991    7990    7993    7996
    7992    7990    7989    7999    7992    7990    7993    7994
    7992    7990    7993    7995    7992    7990    7993    7996
    7993    7990    7989    7999    7993    7996    7999    8000
    7994    7993    7996    7997    7994    7993    7996    7998
    7994    7993    7996    7999    7995    7993    7996    7997
    7995    7993    7996    7998    7995    7993    7996    7999
    7997    7996    7999    8000    7998    7996    7999    8000
    8001    8005    8006    8007    8001    8005    8006    8008
    8001    8005    8006    8009    8001    8005    8015    8012
    8001    8005    8015    8016    8002    8001    8005    8006
    8002    8001    8005    8015    8003    8001    8005    8006
    8003    8001    8005    8015    8004    8001    8005    8006
    8004    8001    8005    8015    8005    8006    8009    8010
    8005    8006    8009    8011    8005    8006    8009    8012
    8005    8015    8012    8009    8005    8015    8012    8013
    8005    8015    8012    8014    8006    8005    8015    8012
    8006    8005    8015    8016    8006    8009    8012    8013
    8006    8009    8012    8014    8006    8009    8012    8015
    8007    8006    8005    8015    8007    8006    8009    8010
    8007    8006    8009    8011    8007    8006    8009    8012
    8008    8006    8005    8015    8008    8006    8009    8010
    8008    8006    8009    8011    8008    8006    8009    8012
    8009    8006    8005    8015    8009    8012    8015    8016
    8010    8009    8012    8013    8010    8009    8012    8014
    8010    8009    8012    8015    8011    8009    8012    8013
    8011    8009    8012    8014    8011    8009    8012    8015
    8013    8012    8015    8016    8014    8012    8015    8016
    8017    8021    8022    8023    8017    8021    8022    8024
    8017    8021    8022    8025    8017    8021    8031    8028
    8017    8021    8031    8032    8018    8017    8021    8022
    8018    8017    8021    8031    8019    8017    8021    8022
    8019    8017    8021    8031    8020    8017    8021    8022
    8020    8017    8021    8031    8021    8022    8025    8026
    8021    8022    8025    8027    8021    8022    8025    8028
    8021    8031    8028    8025    8021    8031    8028    8029
    8021    8031    8028    8030    8022    8021    8031    8028
    8022    8021    8031    8032    8022    8025    8028    8029
    8022    8025    8028    8030    8022    8025    8028    8031
    8023    8022    8021    8031    8023    8022    8025    8026
    8023    8022    8025    8027    8023    8022    8025    8028
    8024    8022    8021    8031    8024    8022    8025    8026
    8024    8022    8025    8027    8024    8022    8025    8028
    8025    8022    8021    8031    8025    8028    8031    8032
    8026    8025    8028    8029    8026    8025    8028    8030
    8026    8025    8028    8031    8027    8025    8028    8029
    8027    8025    8028    8030    8027    8025    8028    8031
    8029    8028    8031    8032    8030    8028    8031    8032
    8033    8037    8038    8039    8033    8037    8038    8040
    8033    8037    8038    8041    8033    8037    8047    8044
    8033    8037    8047    8048    8034    8033    8037    8038
    8034    8033    8037    8047    8035    8033    8037    8038
    8035    8033    8037    8047    8036    8033    8037    8038
    8036    8033    8037    8047    8037    8038    8041    8042
    8037    8038    8041    8043    8037    8038    8041    8044
    8037    8047    8044    8041    8037    8047    8044    8045
    8037    8047    8044    8046    8038    8037    8047    8044
    8038    8037    8047    8048    8038    8041    8044    8045
    8038    8041    8044    8046    8038    8041    8044    8047
    8039    8038    8037    8047    8039    8038    8041    8042
    8039    8038    8041    8043    8039    8038    8041    8044
    8040    8038    8037    8047    8040    8038    8041    8042
    8040    8038    8041    8043    8040    8038    8041    8044
    8041    8038    8037    8047    8041    8044    8047    8048
    8042    8041    8044    8045    8042    8041    8044    8046
    8042    8041    8044    8047    8043    8041    8044    8045
    8043    8041    8044    8046    8043    8041    8044    8047
    8045    8044    8047    8048    8046    8044    8047    8048
    8049    8053    8054    8055    8049    8053    8054    8056
    8049    8053    8054    8057    8049    8053    8063    8060
    8049    8053    8063    8064    8050    8049    8053    8054
    8050    8049    8053    8063    8051    8049    8053    8054
    8051    8049    8053    8063    8052    8049    8053    8054
    8052    8049    8053    8063    8053    8054    8057    8058
    8053    8054    8057    8059    8053    8054    8057    8060
    8053    8063    8060    8057    8053    8063    8060    8061
    8053    8063    8060    8062    8054    8053    8063    8060
    8054    8053    8063    8064    8054    8057    8060    8061
    8054    8057    8060    8062    8054    8057    8060    8063
    8055    8054    8053    8063    8055    8054    8057    8058
    8055    8054    8057    8059    8055    8054    8057    8060
    8056    8054    8053    8063    8056    8054    8057    8058
    8056    8054    8057    8059    8056    8054    8057    8060
    8057    8054    8053    8063    8057    8060    8063    8064
    8058    8057    8060    8061    8058    8057    8060    8062
    8058    8057    8060    8063    8059    8057    8060    8061
    8059    8057    8060    8062    8059    8057    8060    8063
    8061    8060    8063    8064    8062    8060    8063    8064
    8065    8069    8070    8071    8065    8069    8070    8072
    8065    8069    8070    8073    8065    8069    8079    8076
    8065    8069    8079    8080    8066    8065    8069    8070
    8066    8065    8069    8079    8067    8065    8069    8070
    8067    8065    8069    8079    8068    8065    8069    8070
    8068    8065    8069    8079    8069    8070    8073    8074
    8069    8070    8073    8075    8069    8070    8073    8076
    8069    8079    8076    8073    8069    8079    8076    8077
    8069    8079    8076    8078    8070    8069    8079    8076
    8070    8069    8079    8080    8070    8073    8076    8077
    8070    8073    8076    8078    8070    8073    8076    8079
    8071    8070    8069    8079    8071    8070    8073    8074
    8071    8070    8073    8075    8071    8070    8073    8076
    8072    8070    8069    8079    8072    8070    8073    8074
    8072    8070    8073    8075    8072    8070    8073    8076
    8073    8070    8069    8079    8073    8076    8079    8080
    8074    8073    8076    8077    8074    8073    8076    8078
    8074    8073    8076    8079    8075    8073    8076    8077
    8075    8073    8076    8078    8075    8073    8076    8079
    8077    8076    8079    8080    8078    8076    8079    8080
    8081    8085    8086    8087    8081    8085    8086    8088
    8081    8085    8086    8089    8081    8085    8095    8092
    8081    8085    8095    8096    8082    8081    8085    8086
    8082    8081    8085    8095    8083    8081    8085    8086
    8083    8081    8085    8095    8084    8081    8085    8086
    8084    8081    8085    8095    8085    8086    8089    8090
    8085    8086    8089    8091    8085    8086    8089    8092
    8085    8095    8092    8089    8085    8095    8092    8093
    8085    8095    8092    8094    8086    8085    8095    8092
    8086    8085    8095    8096    8086    8089    8092    8093
    8086    8089    8092    8094    8086    8089    8092    8095
    8087    8086    8085    8095    8087    8086    8089    8090
    8087    8086    8089    8091    8087    8086    8089    8092
    8088    8086    8085    8095    8088    8086    8089    8090
    8088    8086    8089    8091    8088    8086    8089    8092
    8089    8086    8085    8095    8089    8092    8095    8096
    8090    8089    8092    8093    8090    8089    8092    8094
    8090    8089    8092    8095    8091    8089    8092    8093
    8091    8089    8092    8094    8091    8089    8092    8095
    8093    8092    8095    8096    8094    8092    8095    8096
    8097    8101    8102    8103    8097    8101    8102    8104
    8097    8101    8102    8105    8097    8101    8111    8108
    8097    8101    8111    8112    8098    8097    8101    8102
    8098    8097    8101    8111    8099    8097    8101    8102
    8099    8097    8101    8111    8100    8097    8101    8102
    8100    8097    8101    8111    8101    8102    8105    8106
    8101    8102    8105    8107    8101    8102    8105    8108
    8101    8111    8108    8105    8101    8111    8108    8109
    8101    8111    8108    8110    8102    8101    8111    8108
    8102    8101    8111    8112    8102    8105    8108    8109
    8102    8105    8108    8110    8102    8105    8108    8111
    8103    8102    8101    8111    8103    8102    8105    8106
    8103    8102    8105    8107    8103    8102    8105    8108
    8104    8102    8101    8111    8104    8102    8105    8106
    8104    8102    8105    8107    8104    8102    8105    8108
    8105    8102    8101    8111    8105    8108    8111    8112
    8106    8105    8108    8109    8106    8105    8108    8110
    8106    8105    8108    8111    8107    8105    8108    8109
    8107    8105    8108    8110    8107    8105    8108    8111
    8109    8108    8111    8112    8110    8108    8111    8112
    8113    8117    8118    8119    8113    8117    8118    8120
    8113    8117    8118    8121    8113    8117    8127    8124
    8113    8117    8127    8128    8114    8113    8117    8118
    8114    8113    8117    8127    8115    8113    8117    8118
    8115    8113    8117    8127    8116    8113    8117    8118
    8116    8113    8117    8127    8117    8118    8121    8122
    8117    8118    8121    8123    8117    8118    8121    8124
    8117    8127    8124    8121    8117    8127    8124    8125
    8117    8127    8124    8126    8118    8117    8127    8124
    8118    8117    8127    8128    8118    8121    8124    8125
    8118    8121    8124    8126    8118    8121    8124    8127
    8119    8118    8117    8127    8119    8118    8121    8122
    8119    8118    8121    8123    8119    8118    8121    8124
    8120    8118    8117    8127    8120    8118    8121    8122
    8120    8118    8121    8123    8120    8118    8121    8124
    8121    8118    8117    8127    8121    8124    8127    8128
    8122    8121    8124    8125    8122    8121    8124    8126
    8122    8121    8124    8127    8123    8121    8124    8125
    8123    8121    8124    8126    8123    8121    8124    8127
    8125    8124    8127    8128    8126    8124    8127    8128
    8129    8133    8134    8135    8129    8133    8134    8136
    8129    8133    8134    8137    8129    8133    8143    8140
    8129    8133    8143    8144    8130    8129    8133    8134
    8130    8129    8133    8143    8131    8129    8133    8134
    8131    8129    8133    8143    8132    8129    8133    8134
    8132    8129    8133    8143    8133    8134    8137    8138
    8133    8134    8137    8139    8133    8134    8137    8140
    8133    8143    8140    8137    8133    8143    8140    8141
    8133    8143    8140    8142    8134    8133    8143    8140
    8134    8133    8143    8144    8134    8137    8140    8141
    8134    8137    8140    8142    8134    8137    8140    8143
    8135    8134    8133    8143    8135    8134    8137    8138
    8135    8134    8137    8139    8135    8134    8137    8140
    8136    8134    8133    8143    8136    8134    8137    8138
    8136    8134    8137    8139    8136    8134    8137    8140
    8137    8134    8133    8143    8137    8140    8143    8144
    8138    8137    8140    8141    8138    8137    8140    8142
    8138    8137    8140    8143    8139    8137    8140    8141
    8139    8137    8140    8142    8139    8137    8140    8143
    8141    8140    8143    8144    8142    8140    8143    8144
    8145    8149    8150    8151    8145    8149    8150    8152
    8145    8149    8150    8153    8145    8149    8159    8156
    8145    8149    8159    8160    8146    8145    8149    8150
    8146    8145    8149    8159    8147    8145    8149    8150
    8147    8145    8149    8159    8148    8145    8149    8150
    8148    8145    8149    8159    8149    8150    8153    8154
    8149    8150    8153    8155    8149    8150    8153    8156
    8149    8159    8156    8153    8149    8159    8156    8157
    8149    8159    8156    8158    8150    8149    8159    8156
    8150    8149    8159    8160    8150    8153    8156    8157
    8150    8153    8156    8158    8150    8153    8156    8159
    8151    8150    8149    8159    8151    8150    8153    8154
    8151    8150    8153    8155    8151    8150    8153    8156
    8152    8150    8149    8159    8152    8150    8153    8154
    8152    8150    8153    8155    8152    8150    8153    8156
    8153    8150    8149    8159    8153    8156    8159    8160
    8154    8153    8156    8157    8154    8153    8156    8158
    8154    8153    8156    8159    8155    8153    8156    8157
    8155    8153    8156    8158    8155    8153    8156    8159
    8157    8156    8159    8160    8158    8156    8159    8160
    8161    8165    8166    8167    8161    8165    8166    8168
    8161    8165    8166    8169    8161    8165    8175    8172
    8161    8165    8175    8176    8162    8161    8165    8166
    8162    8161    8165    8175    8163    8161    8165    8166
    8163    8161    8165    8175    8164    8161    8165    8166
    8164    8161    8165    8175    8165    8166    8169    8170
    8165    8166    8169    8171    8165    8166    8169    8172
    8165    8175    8172    8169    8165    8175    8172    8173
    8165    8175    8172    8174    8166    8165    8175    8172
    8166    8165    8175    8176    8166    8169    8172    8173
    8166    8169    8172    8174    8166    8169    8172    8175
    8167    8166    8165    8175    8167    8166    8169    8170
    8167    8166    8169    8171    8167    8166    8169    8172
    8168    8166    8165    8175    8168    8166    8169    8170
    8168    8166    8169    8171    8168    8166    8169    8172
    8169    8166    8165    8175    8169    8172    8175    8176
    8170    8169    8172    8173    8170    8169    8172    8174
    8170    8169    8172    8175    8171    8169    8172    8173
    8171    8169    8172    8174    8171    8169    8172    8175
    8173    8172    8175    8176    8174    8172    8175    8176
    8177    8181    8182    8183    8177    8181    8182    8184
    8177    8181    8182    8185    8177    8181    8191    8188
    8177    8181    8191    8192    8178    8177    8181    8182
    8178    8177    8181    8191    8179    8177    8181    8182
    8179    8177    8181    8191    8180    8177    8181    8182
    8180    8177    8181    8191    8181    8182    8185    8186
    8181    8182    8185    8187    8181    8182    8185    8188
    8181    8191    8188    8185    8181    8191    8188    8189
    8181    8191    8188    8190    8182    8181    8191    8188
    8182    8181    8191    8192    8182    8185    8188    8189
    8182    8185    8188    8190    8182    8185    8188    8191
    8183    8182    8181    8191    8183    8182    8185    8186
    8183    8182    8185    8187    8183    8182    8185    8188
    8184    8182    8181    8191    8184    8182    8185    8186
    8184    8182    8185    8187    8184    8182    8185    8188
    8185    8182    8181    8191    8185    8188    8191    8192
    8186    8185    8188    8189    8186    8185    8188    8190
    8186    8185    8188    8191    8187    8185    8188    8189
    8187    8185    8188    8190    8187    8185    8188    8191
    8189    8188    8191    8192    8190    8188    8191    8192
    8193    8197    8198    8199    8193    8197    8198    8200
    8193    8197    8198    8201    8193    8197    8207    8204
    8193    8197    8207    8208    8194    8193    8197    8198
    8194    8193    8197    8207    8195    8193    8197    8198
    8195    8193    8197    8207    8196    8193    8197    8198
    8196    8193    8197    8207    8197    8198    8201    8202
    8197    8198    8201    8203    8197    8198    8201    8204
    8197    8207    8204    8201    8197    8207    8204    8205
    8197    8207    8204    8206    8198    8197    8207    8204
    8198    8197    8207    8208    8198    8201    8204    8205
    8198    8201    8204    8206    8198    8201    8204    8207
    8199    8198    8197    8207    8199    8198    8201    8202
    8199    8198    8201    8203    8199    8198    8201    8204
    8200    8198    8197    8207    8200    8198    8201    8202
    8200    8198    8201    8203    8200    8198    8201    8204
    8201    8198    8197    8207    8201    8204    8207    8208
    8202    8201    8204    8205    8202    8201    8204    8206
    8202    8201    8204    8207    8203    8201    8204    8205
    8203    8201    8204    8206    8203    8201    8204    8207
    8205    8204    8207    8208    8206    8204    8207    8208
    8209    8213    8214    8215    8209    8213    8214    8216
    8209    8213    8214    8217    8209    8213    8223    8220
    8209    8213    8223    8224    8210    8209    8213    8214
    8210    8209    8213    8223    8211    8209    8213    8214
    8211    8209    8213    8223    8212    8209    8213    8214
    8212    8209    8213    8223    8213    8214    8217    8218
    8213    8214    8217    8219    8213    8214    8217    8220
    8213    8223    8220    8217    8213    8223    8220    8221
    8213    8223    8220    8222    8214    8213    8223    8220
    8214    8213    8223    8224    8214    8217    8220    8221
    8214    8217    8220    8222    8214    8217    8220    8223
    8215    8214    8213    8223    8215    8214    8217    8218
    8215    8214    8217    8219    8215    8214    8217    8220
    8216    8214    8213    8223    8216    8214    8217    8218
    8216    8214    8217    8219    8216    8214    8217    8220
    8217    8214    8213    8223    8217    8220    8223    8224
    8218    8217    8220    8221    8218    8217    8220    8222
    8218    8217    8220    8223    8219    8217    8220    8221
    8219    8217    8220    8222    8219    8217    8220    8223
    8221    8220    8223    8224    8222    8220    8223    8224
    8225    8229    8230    8231    8225    8229    8230    8232
    8225    8229    8230    8233    8225    8229    8239    8236
    8225    8229    8239    8240    8226    8225    8229    8230
    8226    8225    8229    8239    8227    8225    8229    8230
    8227    8225    8229    8239    8228    8225    8229    8230
    8228    8225    8229    8239    8229    8230    8233    8234
    8229    8230    8233    8235    8229    8230    8233    8236
    8229    8239    8236    8233    8229    8239    8236    8237
    8229    8239    8236    8238    8230    8229    8239    8236
    8230    8229    8239    8240    8230    8233    8236    8237
    8230    8233    8236    8238    8230    8233    8236    8239
    8231    8230    8229    8239    8231    8230    8233    8234
    8231    8230    8233    8235    8231    8230    8233    8236
    8232    8230    8229    8239    8232    8230    8233    8234
    8232    8230    8233    8235    8232    8230    8233    8236
    8233    8230    8229    8239    8233    8236    8239    8240
    8234    8233    8236    8237    8234    8233    8236    8238
    8234    8233    8236    8239    8235    8233    8236    8237
    8235    8233    8236    8238    8235    8233    8236    8239
    8237    8236    8239    8240    8238    8236    8239    8240
    8241    8245    8246    8247    8241    8245    8246    8248
    8241    8245    8246    8249    8241    8245    8255    8252
    8241    8245    8255    8256    8242    8241    8245    8246
    8242    8241    8245    8255    8243    8241    8245    8246
    8243    8241    8245    8255    8244    8241    8245    8246
    8244    8241    8245    8255    8245    8246    8249    8250
    8245    8246    8249    8251    8245    8246    8249    8252
    8245    8255    8252    8249    8245    8255    8252    8253
    8245    8255    8252    8254    8246    8245    8255    8252
    8246    8245    8255    8256    8246    8249    8252    8253
    8246    8249    8252    8254    8246    8249    8252    8255
    8247    8246    8245    8255    8247    8246    8249    8250
    8247    8246    8249    8251    8247    8246    8249    8252
    8248    8246    8245    8255    8248    8246    8249    8250
    8248    8246    8249    8251    8248    8246    8249    8252
    8249    8246    8245    8255    8249    8252    8255    8256
    8250    8249    8252    8253    8250    8249    8252    8254
    8250    8249    8252    8255    8251    8249    8252    8253
    8251    8249    8252    8254    8251    8249    8252    8255
    8253    8252    8255    8256    8254    8252    8255    8256
    8257    8261    8262    8263    8257    8261    8262    8264
    8257    8261    8262    8265    8257    8261    8271    8268
    8257    8261    8271    8272    8258    8257    8261    8262
    8258    8257    8261    8271    8259    8257    8261    8262
    8259    8257    8261    8271    8260    8257    8261    8262
    8260    8257    8261    8271    8261    8262    8265    8266
    8261    8262    8265    8267    8261    8262    8265    8268
    8261    8271    8268    8265    8261    8271    8268    8269
    8261    8271    8268    8270    8262    8261    8271    8268
    8262    8261    8271    8272    8262    8265    8268    8269
    8262    8265    8268    8270    8262    8265    8268    8271
    8263    8262    8261    8271    8263    8262    8265    8266
    8263    8262    8265    8267    8263    8262    8265    8268
    8264    8262    8261    8271    8264    8262    8265    8266
    8264    8262    8265    8267    8264    8262    8265    8268
    8265    8262    8261    8271    8265    8268    8271    8272
    8266    8265    8268    8269    8266    8265    8268    8270
    8266    8265    8268    8271    8267    8265    8268    8269
    8267    8265    8268    8270    8267    8265    8268    8271
    8269    8268    8271    8272    8270    8268    8271    8272
    8273    8277    8278    8279    8273    8277    8278    8280
    8273    8277    8278    8281    8273    8277    8287    8284
    8273    8277    8287    8288    8274    8273    8277    8278
    8274    8273    8277    8287    8275    8273    8277    8278
    8275    8273    8277    8287    8276    8273    8277    8278
    8276    8273    8277    8287    8277    8278    8281    8282
    8277    8278    8281    8283    8277    8278    8281    8284
    8277    8287    8284    8281    8277    8287    8284    8285
    8277    8287    8284    8286    8278    8277    8287    8284
    8278    8277    8287    8288    8278    8281    8284    8285
    8278    8281    8284    8286    8278    8281    8284    8287
    8279    8278    8277    8287    8279    8278    8281    8282
    8279    8278    8281    8283    8279    8278    8281    8284
    8280    8278    8277    8287    8280    8278    8281    8282
    8280    8278    8281    8283    8280    8278    8281    8284
    8281    8278    8277    8287    8281    8284    8287    8288
    8282    8281    8284    8285    8282    8281    8284    8286
    8282    8281    8284    8287    8283    8281    8284    8285
    8283    8281    8284    8286    8283    8281    8284    8287
    8285    8284    8287    8288    8286    8284    8287    8288
    8289    8293    8294    8295    8289    8293    8294    8296
    8289    8293    8294    8297    8289    8293    8303    8300
    8289    8293    8303    8304    8290    8289    8293    8294
    8290    8289    8293    8303    8291    8289    8293    8294
    8291    8289    8293    8303    8292    8289    8293    8294
    8292    8289    8293    8303    8293    8294    8297    8298
    8293    8294    8297    8299    8293    8294    8297    8300
    8293    8303    8300    8297    8293    8303    8300    8301
    8293    8303    8300    8302    8294    8293    8303    8300
    8294    8293    8303    8304    8294    8297    8300    8301
    8294    8297    8300    8302    8294    8297    8300    8303
    8295    8294    8293    8303    8295    8294    8297    8298
    8295    8294    8297    8299    8295    8294    8297    8300
    8296    8294    8293    8303    8296    8294    8297    8298
    8296    8294    8297    8299    8296    8294    8297    8300
    8297    8294    8293    8303    8297    8300    8303    8304
    8298    8297    8300    8301    8298    8297    8300    8302
    8298    8297    8300    8303    8299    8297    8300    8301
    8299    8297    8300    8302    8299    8297    8300    8303
    8301    8300    8303    8304    8302    8300    8303    8304
    8305    8309    8310    8311    8305    8309    8310    8312
    8305    8309    8310    8313    8305    8309    8319    8316
    8305    8309    8319    8320    8306    8305    8309    8310
    8306    8305    8309    8319    8307    8305    8309    8310
    8307    8305    8309    8319    8308    8305    8309    8310
    8308    8305    8309    8319    8309    8310    8313    8314
    8309    8310    8313    8315    8309    8310    8313    8316
    8309    8319    8316    8313    8309    8319    8316    8317
    8309    8319    8316    8318    8310    8309    8319    8316
    8310    8309    8319    8320    8310    8313    8316    8317
    8310    8313    8316    8318    8310    8313    8316    8319
    8311    8310    8309    8319    8311    8310    8313    8314
    8311    8310    8313    8315    8311    8310    8313    8316
    8312    8310    8309    8319    8312    8310    8313    8314
    8312    8310    8313    8315    8312    8310    8313    8316
    8313    8310    8309    8319    8313    8316    8319    8320
    8314    8313    8316    8317    8314    8313    8316    8318
    8314    8313    8316    8319    8315    8313    8316    8317
    8315    8313    8316    8318    8315    8313    8316    8319
    8317    8316    8319    8320    8318    8316    8319    8320
    8321    8325    8326    8327    8321    8325    8326    8328
    8321    8325    8326    8329    8321    8325    8335    8332
    8321    8325    8335    8336    8322    8321    8325    8326
    8322    8321    8325    8335    8323    8321    8325    8326
    8323    8321    8325    8335    8324    8321    8325    8326
    8324    8321    8325    8335    8325    8326    8329    8330
    8325    8326    8329    8331    8325    8326    8329    8332
    8325    8335    8332    8329    8325    8335    8332    8333
    8325    8335    8332    8334    8326    8325    8335    8332
    8326    8325    8335    8336    8326    8329    8332    8333
    8326    8329    8332    8334    8326    8329    8332    8335
    8327    8326    8325    8335    8327    8326    8329    8330
    8327    8326    8329    8331    8327    8326    8329    8332
    8328    8326    8325    8335    8328    8326    8329    8330
    8328    8326    8329    8331    8328    8326    8329    8332
    8329    8326    8325    8335    8329    8332    8335    8336
    8330    8329    8332    8333    8330    8329    8332    8334
    8330    8329    8332    8335    8331    8329    8332    8333
    8331    8329    8332    8334    8331    8329    8332    8335
    8333    8332    8335    8336    8334    8332    8335    8336
    8337    8341    8342    8343    8337    8341    8342    8344
    8337    8341    8342    8345    8337    8341    8351    8348
    8337    8341    8351    8352    8338    8337    8341    8342
    8338    8337    8341    8351    8339    8337    8341    8342
    8339    8337    8341    8351    8340    8337    8341    8342
    8340    8337    8341    8351    8341    8342    8345    8346
    8341    8342    8345    8347    8341    8342    8345    8348
    8341    8351    8348    8345    8341    8351    8348    8349
    8341    8351    8348    8350    8342    8341    8351    8348
    8342    8341    8351    8352    8342    8345    8348    8349
    8342    8345    8348    8350    8342    8345    8348    8351
    8343    8342    8341    8351    8343    8342    8345    8346
    8343    8342    8345    8347    8343    8342    8345    8348
    8344    8342    8341    8351    8344    8342    8345    8346
    8344    8342    8345    8347    8344    8342    8345    8348
    8345    8342    8341    8351    8345    8348    8351    8352
    8346    8345    8348    8349    8346    8345    8348    8350
    8346    8345    8348    8351    8347    8345    8348    8349
    8347    8345    8348    8350    8347    8345    8348    8351
    8349    8348    8351    8352    8350    8348    8351    8352
    8353    8357    8358    8359    8353    8357    8358    8360
    8353    8357    8358    8361    8353    8357    8367    8364
    8353    8357    8367    8368    8354    8353    8357    8358
    8354    8353    8357    8367    8355    8353    8357    8358
    8355    8353    8357    8367    8356    8353    8357    8358
    8356    8353    8357    8367    8357    8358    8361    8362
    8357    8358    8361    8363    8357    8358    8361    8364
    8357    8367    8364    8361    8357    8367    8364    8365
    8357    8367    8364    8366    8358    8357    8367    8364
    8358    8357    8367    8368    8358    8361    8364    8365
    8358    8361    8364    8366    8358    8361    8364    8367
    8359    8358    8357    8367    8359    8358    8361    8362
    8359    8358    8361    8363    8359    8358    8361    8364
    8360    8358    8357    8367    8360    8358    8361    8362
    8360    8358    8361    8363    8360    8358    8361    8364
    8361    8358    8357    8367    8361    8364    8367    8368
    8362    8361    8364    8365    8362    8361    8364    8366
    8362    8361    8364    8367    8363    8361    8364    8365
    8363    8361    8364    8366    8363    8361    8364    8367
    8365    8364    8367    8368    8366    8364    8367    8368
    8369    8373    8374    8375    8369    8373    8374    8376
    8369    8373    8374    8377    8369    8373    8383    8380
    8369    8373    8383    8384    8370    8369    8373    8374
    8370    8369    8373    8383    8371    8369    8373    8374
    8371    8369    8373    8383    8372    8369    8373    8374
    8372    8369    8373    8383    8373    8374    8377    8378
    8373    8374    8377    8379    8373    8374    8377    8380
    8373    8383    8380    8377    8373    8383    8380    8381
    8373    8383    8380    8382    8374    8373    8383    8380
    8374    8373    8383    8384    8374    8377    8380    8381
    8374    8377    8380    8382    8374    8377    8380    8383
    8375    8374    8373    8383    8375    8374    8377    8378
    8375    8374    8377    8379    8375    8374    8377    8380
    8376    8374    8373    8383    8376    8374    8377    8378
    8376    8374    8377    8379    8376    8374    8377    8380
    8377    8374    8373    8383    8377    8380    8383    8384
    8378    8377    8380    8381    8378    8377    8380    8382
    8378    8377    8380    8383    8379    8377    8380    8381
    8379    8377    8380    8382    8379    8377    8380    8383
    8381    8380    8383    8384    8382    8380    8383    8384
    8385    8389    8390    8391    8385    8389    8390    8392
    8385    8389    8390    8393    8385    8389    8399    8396
    8385    8389    8399    8400    8386    8385    8389    8390
    8386    8385    8389    8399    8387    8385    8389    8390
    8387    8385    8389    8399    8388    8385    8389    8390
    8388    8385    8389    8399    8389    8390    8393    8394
    8389    8390    8393    8395    8389    8390    8393    8396
    8389    8399    8396    8393    8389    8399    8396    8397
    8389    8399    8396    8398    8390    8389    8399    8396
    8390    8389    8399    8400    8390    8393    8396    8397
    8390    8393    8396    8398    8390    8393    8396    8399
    8391    8390    8389    8399    8391    8390    8393    8394
    8391    8390    8393    8395    8391    8390    8393    8396
    8392    8390    8389    8399    8392    8390    8393    8394
    8392    8390    8393    8395    8392    8390    8393    8396
    8393    8390    8389    8399    8393    8396    8399    8400
    8394    8393    8396    8397    8394    8393    8396    8398
    8394    8393    8396    8399    8395    8393    8396    8397
    8395    8393    8396    8398    8395    8393    8396    8399
    8397    8396    8399    8400    8398    8396    8399    8400
    8401    8405    8406    8407    8401    8405    8406    8408
    8401    8405    8406    8409    8401    8405    8415    8412
    8401    8405    8415    8416    8402    8401    8405    8406
    8402    8401    8405    8415    8403    8401    8405    8406
    8403    8401    8405    8415    8404    8401    8405    8406
    8404    8401    8405    8415    8405    8406    8409    8410
    8405    8406    8409    8411    8405    8406    8409    8412
    8405    8415    8412    8409    8405    8415    8412    8413
    8405    8415    8412    8414    8406    8405    8415    8412
    8406    8405    8415    8416    8406    8409    8412    8413
    8406    8409    8412    8414    8406    8409    8412    8415
    8407    8406    8405    8415    8407    8406    8409    8410
    8407    8406    8409    8411    8407    8406    8409    8412
    8408    8406    8405    8415    8408    8406    8409    8410
    8408    8406    8409    8411    8408    8406    8409    8412
    8409    8406    8405    8415    8409    8412    8415    8416
    8410    8409    8412    8413    8410    8409    8412    8414
    8410    8409    8412    8415    8411    8409    8412    8413
    8411    8409    8412    8414    8411    8409    8412    8415
    8413    8412    8415    8416    8414    8412    8415    8416
    8417    8421    8422    8423    8417    8421    8422    8424
    8417    8421    8422    8425    8417    8421    8431    8428
    8417    8421    8431    8432    8418    8417    8421    8422
    8418    8417    8421    8431    8419    8417    8421    8422
    8419    8417    8421    8431    8420    8417    8421    8422
    8420    8417    8421    8431    8421    8422    8425    8426
    8421    8422    8425    8427    8421    8422    8425    8428
    8421    8431    8428    8425    8421    8431    8428    8429
    8421    8431    8428    8430    8422    8421    8431    8428
    8422    8421    8431    8432    8422    8425    8428    8429
    8422    8425    8428    8430    8422    8425    8428    8431
    8423    8422    8421    8431    8423    8422    8425    8426
    8423    8422    8425    8427    8423    8422    8425    8428
    8424    8422    8421    8431    8424    8422    8425    8426
    8424    8422    8425    8427    8424    8422    8425    8428
    8425    8422    8421    8431    8425    8428    8431    8432
    8426    8425    8428    8429    8426    8425    8428    8430
    8426    8425    8428    8431    8427    8425    8428    8429
    8427    8425    8428    8430    8427    8425    8428    8431
    8429    8428    8431    8432    8430    8428    8431    8432
    8433    8437    8438    8439    8433    8437    8438    8440
    8433    8437    8438    8441    8433    8437    8447    8444
    8433    8437    8447    8448    8434    8433    8437    8438
    8434    8433    8437    8447    8435    8433    8437    8438
    8435    8433    8437    8447    8436    8433    8437    8438
    8436    8433    8437    8447    8437    8438    8441    8442
    8437    8438    8441    8443    8437    8438    8441    8444
    8437    8447    8444    8441    8437    8447    8444    8445
    8437    8447    8444    8446    8438    8437    8447    8444
    8438    8437    8447    8448    8438    8441    8444    8445
    8438    8441    8444    8446    8438    8441    8444    8447
    8439    8438    8437    8447    8439    8438    8441    8442
    8439    8438    8441    8443    8439    8438    8441    8444
    8440    8438    8437    8447    8440    8438    8441    8442
    8440    8438    8441    8443    8440    8438    8441    8444
    8441    8438    8437    8447    8441    8444    8447    8448
    8442    8441    8444    8445    8442    8441    8444    8446
    8442    8441    8444    8447    8443    8441    8444    8445
    8443    8441    8444    8446    8443    8441    8444    8447
    8445    8444    8447    8448    8446    8444    8447    8448
    8449    8453    8454    8455    8449    8453    8454    8456
    8449    8453    8454    8457    8449    8453    8463    8460
    8449    8453    8463    8464    8450    8449    8453    8454
    8450    8449    8453    8463    8451    8449    8453    8454
    8451    8449    8453    8463    8452    8449    8453    8454
    8452    8449    8453    8463    8453    8454    8457    8458
    8453    8454    8457    8459    8453    8454    8457    8460
    8453    8463    8460    8457    8453    8463    8460    8461
    8453    8463    8460    8462    8454    8453    8463    8460
    8454    8453    8463    8464    8454    8457    8460    8461
    8454    8457    8460    8462    8454    8457    8460    8463
    8455    8454    8453    8463    8455    8454    8457    8458
    8455    8454    8457    8459    8455    8454    8457    8460
    8456    8454    8453    8463    8456    8454    8457    8458
    8456    8454    8457    8459    8456    8454    8457    8460
    8457    8454    8453    8463    8457    8460    8463    8464
    8458    8457    8460    8461    8458    8457    8460    8462
    8458    8457    8460    8463    8459    8457    8460    8461
    8459    8457    8460    8462    8459    8457    8460    8463
    8461    8460    8463    8464    8462    8460    8463    8464
    8465    8469    8470    8471    8465    8469    8470    8472
    8465    8469    8470    8473    8465    8469    8479    8476
    8465    8469    8479    8480    8466    8465    8469    8470
    8466    8465    8469    8479    8467    8465    8469    8470
    8467    8465    8469    8479    8468    8465    8469    8470
    8468    8465    8469    8479    8469    8470    8473    8474
    8469    8470    8473    8475    8469    8470    8473    8476
    8469    8479    8476    8473    8469    8479    8476    8477
    8469    8479    8476    8478    8470    8469    8479    8476
    8470    8469    8479    8480    8470    8473    8476    8477
    8470    8473    8476    8478    8470    8473    8476    8479
    8471    8470    8469    8479    8471    8470    8473    8474
    8471    8470    8473    8475    8471    8470    8473    8476
    8472    8470    8469    8479    8472    8470    8473    8474
    8472    8470    8473    8475    8472    8470    8473    8476
    8473    8470    8469    8479    8473    8476    8479    8480
    8474    8473    8476    8477    8474    8473    8476    8478
    8474    8473    8476    8479    8475    8473    8476    8477
    8475    8473    8476    8478    8475    8473    8476    8479
    8477    8476    8479    8480    8478    8476    8479    8480
    8481    8485    8486    8487    8481    8485    8486    8488
    8481    8485    8486    8489    8481    8485    8495    8492
    8481    8485    8495    8496    8482    8481    8485    8486
    8482    8481    8485    8495    8483    8481    8485    8486
    8483    8481    8485    8495    8484    8481    8485    8486
    8484    8481    8485    8495    8485    8486    8489    8490
    8485    8486    8489    8491    8485    8486    8489    8492
    8485    8495    8492    8489    8485    8495    8492    8493
    8485    8495    8492    8494    8486    8485    8495    8492
    8486    8485    8495    8496    8486    8489    8492    8493
    8486    8489    8492    8494    8486    8489    8492    8495
    8487    8486    8485    8495    8487    8486    8489    8490
    8487    8486    8489    8491    8487    8486    8489    8492
    8488    8486    8485    8495    8488    8486    8489    8490
    8488    8486    8489    8491    8488    8486    8489    8492
    8489    8486    8485    8495    8489    8492    8495    8496
    8490    8489    8492    8493    8490    8489    8492    8494
    8490    8489    8492    8495    8491    8489    8492    8493
    8491    8489    8492    8494    8491    8489    8492    8495
    8493    8492    8495    8496    8494    8492    8495    8496
    8497    8501    8502    8503    8497    8501    8502    8504
    8497    8501    8502    8505    8497    8501    8511    8508
    8497    8501    8511    8512    8498    8497    8501    8502
    8498    8497    8501    8511    8499    8497    8501    8502
    8499    8497    8501    8511    8500    8497    8501    8502
    8500    8497    8501    8511    8501    8502    8505    8506
    8501    8502    8505    8507    8501    8502    8505    8508
    8501    8511    8508    8505    8501    8511    8508    8509
    8501    8511    8508    8510    8502    8501    8511    8508
    8502    8501    8511    8512    8502    8505    8508    8509
    8502    8505    8508    8510    8502    8505    8508    8511
    8503    8502    8501    8511    8503    8502    8505    8506
    8503    8502    8505    8507    8503    8502    8505    8508
    8504    8502    8501    8511    8504    8502    8505    8506
    8504    8502    8505    8507    8504    8502    8505    8508
    8505    8502    8501    8511    8505    8508    8511    8512
    8506    8505    8508    8509    8506    8505    8508    8510
    8506    8505    8508    8511    8507    8505    8508    8509
    8507    8505    8508    8510    8507    8505    8508    8511
    8509    8508    8511    8512    8510    8508    8511    8512
    8513    8517    8518    8519    8513    8517    8518    8520
    8513    8517    8518    8521    8513    8517    8527    8524
    8513    8517    8527    8528    8514    8513    8517    8518
    8514    8513    8517    8527    8515    8513    8517    8518
    8515    8513    8517    8527    8516    8513    8517    8518
    8516    8513    8517    8527    8517    8518    8521    8522
    8517    8518    8521    8523    8517    8518    8521    8524
    8517    8527    8524    8521    8517    8527    8524    8525
    8517    8527    8524    8526    8518    8517    8527    8524
    8518    8517    8527    8528    8518    8521    8524    8525
    8518    8521    8524    8526    8518    8521    8524    8527
    8519    8518    8517    8527    8519    8518    8521    8522
    8519    8518    8521    8523    8519    8518    8521    8524
    8520    8518    8517    8527    8520    8518    8521    8522
    8520    8518    8521    8523    8520    8518    8521    8524
    8521    8518    8517    8527    8521    8524    8527    8528
    8522    8521    8524    8525    8522    8521    8524    8526
    8522    8521    8524    8527    8523    8521    8524    8525
    8523    8521    8524    8526    8523    8521    8524    8527
    8525    8524    8527    8528    8526    8524    8527    8528
    8529    8533    8534    8535    8529    8533    8534    8536
    8529    8533    8534    8537    8529    8533    8543    8540
    8529    8533    8543    8544    8530    8529    8533    8534
    8530    8529    8533    8543    8531    8529    8533    8534
    8531    8529    8533    8543    8532    8529    8533    8534
    8532    8529    8533    8543    8533    8534    8537    8538
    8533    8534    8537    8539    8533    8534    8537    8540
    8533    8543    8540    8537    8533    8543    8540    8541
    8533    8543    8540    8542    8534    8533    8543    8540
    8534    8533    8543    8544    8534    8537    8540    8541
    8534    8537    8540    8542    8534    8537    8540    8543
    8535    8534    8533    8543    8535    8534    8537    8538
    8535    8534    8537    8539    8535    8534    8537    8540
    8536    8534    8533    8543    8536    8534    8537    8538
    8536    8534    8537    8539    8536    8534    8537    8540
    8537    8534    8533    8543    8537    8540    8543    8544
    8538    8537    8540    8541    8538    8537    8540    8542
    8538    8537    8540    8543    8539    8537    8540    8541
    8539    8537    8540    8542    8539    8537    8540    8543
    8541    8540    8543    8544    8542    8540    8543    8544
    8545    8549    8550    8551    8545    8549    8550    8552
    8545    8549    8550    8553    8545    8549    8559    8556
    8545    8549    8559    8560    8546    8545    8549    8550
    8546    8545    8549    8559    8547    8545    8549    8550
    8547    8545    8549    8559    8548    8545    8549    8550
    8548    8545    8549    8559    8549    8550    8553    8554
    8549    8550    8553    8555    8549    8550    8553    8556
    8549    8559    8556    8553    8549    8559    8556    8557
    8549    8559    8556    8558    8550    8549    8559    8556
    8550    8549    8559    8560    8550    8553    8556    8557
    8550    8553    8556    8558    8550    8553    8556    8559
    8551    8550    8549    8559    8551    8550    8553    8554
    8551    8550    8553    8555    8551    8550    8553    8556
    8552    8550    8549    8559    8552    8550    8553    8554
    8552    8550    8553    8555    8552    8550    8553    8556
    8553    8550    8549    8559    8553    8556    8559    8560
    8554    8553    8556    8557    8554    8553    8556    8558
    8554    8553    8556    8559    8555    8553    8556    8557
    8555    8553    8556    8558    8555    8553    8556    8559
    8557    8556    8559    8560    8558    8556    8559    8560
    8561    8565    8566    8567    8561    8565    8566    8568
    8561    8565    8566    8569    8561    8565    8575    8572
    8561    8565    8575    8576    8562    8561    8565    8566
    8562    8561    8565    8575    8563    8561    8565    8566
    8563    8561    8565    8575    8564    8561    8565    8566
    8564    8561    8565    8575    8565    8566    8569    8570
    8565    8566    8569    8571    8565    8566    8569    8572
    8565    8575    8572    8569    8565    8575    8572    8573
    8565    8575    8572    8574    8566    8565    8575    8572
    8566    8565    8575    8576    8566    8569    8572    8573
    8566    8569    8572    8574    8566    8569    8572    8575
    8567    8566    8565    8575    8567    8566    8569    8570
    8567    8566    8569    8571    8567    8566    8569    8572
    8568    8566    8565    8575    8568    8566    8569    8570
    8568    8566    8569    8571    8568    8566    8569    8572
    8569    8566    8565    8575    8569    8572    8575    8576
    8570    8569    8572    8573    8570    8569    8572    8574
    8570    8569    8572    8575    8571    8569    8572    8573
    8571    8569    8572    8574    8571    8569    8572    8575
    8573    8572    8575    8576    8574    8572    8575    8576
    8577    8581    8582    8583    8577    8581    8582    8584
    8577    8581    8582    8585    8577    8581    8591    8588
    8577    8581    8591    8592    8578    8577    8581    8582
    8578    8577    8581    8591    8579    8577    8581    8582
    8579    8577    8581    8591    8580    8577    8581    8582
    8580    8577    8581    8591    8581    8582    8585    8586
    8581    8582    8585    8587    8581    8582    8585    8588
    8581    8591    8588    8585    8581    8591    8588    8589
    8581    8591    8588    8590    8582    8581    8591    8588
    8582    8581    8591    8592    8582    8585    8588    8589
    8582    8585    8588    8590    8582    8585    8588    8591
    8583    8582    8581    8591    8583    8582    8585    8586
    8583    8582    8585    8587    8583    8582    8585    8588
    8584    8582    8581    8591    8584    8582    8585    8586
    8584    8582    8585    8587    8584    8582    8585    8588
    8585    8582    8581    8591    8585    8588    8591    8592
    8586    8585    8588    8589    8586    8585    8588    8590
    8586    8585    8588    8591    8587    8585    8588    8589
    8587    8585    8588    8590    8587    8585    8588    8591
    8589    8588    8591    8592    8590    8588    8591    8592
    8593    8597    8598    8599    8593    8597    8598    8600
    8593    8597    8598    8601    8593    8597    8607    8604
    8593    8597    8607    8608    8594    8593    8597    8598
    8594    8593    8597    8607    8595    8593    8597    8598
    8595    8593    8597    8607    8596    8593    8597    8598
    8596    8593    8597    8607    8597    8598    8601    8602
    8597    8598    8601    8603    8597    8598    8601    8604
    8597    8607    8604    8601    8597    8607    8604    8605
    8597    8607    8604    8606    8598    8597    8607    8604
    8598    8597    8607    8608    8598    8601    8604    8605
    8598    8601    8604    8606    8598    8601    8604    8607
    8599    8598    8597    8607    8599    8598    8601    8602
    8599    8598    8601    8603    8599    8598    8601    8604
    8600    8598    8597    8607    8600    8598    8601    8602
    8600    8598    8601    8603    8600    8598    8601    8604
    8601    8598    8597    8607    8601    8604    8607    8608
    8602    8601    8604    8605    8602    8601    8604    8606
    8602    8601    8604    8607    8603    8601    8604    8605
    8603    8601    8604    8606    8603    8601    8604    8607
    8605    8604    8607    8608    8606    8604    8607    8608
    8609    8613    8614    8615    8609    8613    8614    8616
    8609    8613    8614    8617    8609    8613    8623    8620
    8609    8613    8623    8624    8610    8609    8613    8614
    8610    8609    8613    8623    8611    8609    8613    8614
    8611    8609    8613    8623    8612    8609    8613    8614
    8612    8609    8613    8623    8613    8614    8617    8618
    8613    8614    8617    8619    8613    8614    8617    8620
    8613    8623    8620    8617    8613    8623    8620    8621
    8613    8623    8620    8622    8614    8613    8623    8620
    8614    8613    8623    8624    8614    8617    8620    8621
    8614    8617    8620    8622    8614    8617    8620    8623
    8615    8614    8613    8623    8615    8614    8617    8618
    8615    8614    8617    8619    8615    8614    8617    8620
    8616    8614    8613    8623    8616    8614    8617    8618
    8616    8614    8617    8619    8616    8614    8617    8620
    8617    8614    8613    8623    8617    8620    8623    8624
    8618    8617    8620    8621    8618    8617    8620    8622
    8618    8617    8620    8623    8619    8617    8620    8621
    8619    8617    8620    8622    8619    8617    8620    8623
    8621    8620    8623    8624    8622    8620    8623    8624
    8625    8629    8630    8631    8625    8629    8630    8632
    8625    8629    8630    8633    8625    8629    8639    8636
    8625    8629    8639    8640    8626    8625    8629    8630
    8626    8625    8629    8639    8627    8625    8629    8630
    8627    8625    8629    8639    8628    8625    8629    8630
    8628    8625    8629    8639    8629    8630    8633    8634
    8629    8630    8633    8635    8629    8630    8633    8636
    8629    8639    8636    8633    8629    8639    8636    8637
    8629    8639    8636    8638    8630    8629    8639    8636
    8630    8629    8639    8640    8630    8633    8636    8637
    8630    8633    8636    8638    8630    8633    8636    8639
    8631    8630    8629    8639    8631    8630    8633    8634
    8631    8630    8633    8635    8631    8630    8633    8636
    8632    8630    8629    8639    8632    8630    8633    8634
    8632    8630    8633    8635    8632    8630    8633    8636
    8633    8630    8629    8639    8633    8636    8639    8640
    8634    8633    8636    8637    8634    8633    8636    8638
    8634    8633    8636    8639    8635    8633    8636    8637
    8635    8633    8636    8638    8635    8633    8636    8639
    8637    8636    8639    8640    8638    8636    8639    8640
    8641    8645    8646    8647    8641    8645    8646    8648
    8641    8645    8646    8649    8641    8645    8655    8652
    8641    8645    8655    8656    8642    8641    8645    8646
    8642    8641    8645    8655    8643    8641    8645    8646
    8643    8641    8645    8655    8644    8641    8645    8646
    8644    8641    8645    8655    8645    8646    8649    8650
    8645    8646    8649    8651    8645    8646    8649    8652
    8645    8655    8652    8649    8645    8655    8652    8653
    8645    8655    8652    8654    8646    8645    8655    8652
    8646    8645    8655    8656    8646    8649    8652    8653
    8646    8649    8652    8654    8646    8649    8652    8655
    8647    8646    8645    8655    8647    8646    8649    8650
    8647    8646    8649    8651    8647    8646    8649    8652
    8648    8646    8645    8655    8648    8646    8649    8650
    8648    8646    8649    8651    8648    8646    8649    8652
    8649    8646    8645    8655    8649    8652    8655    8656
    8650    8649    8652    8653    8650    8649    8652    8654
    8650    8649    8652    8655    8651    8649    8652    8653
    8651    8649    8652    8654    8651    8649    8652    8655
    8653    8652    8655    8656    8654    8652    8655    8656
    8657    8661    8662    8663    8657    8661    8662    8664
    8657    8661    8662    8665    8657    8661    8671    8668
    8657    8661    8671    8672    8658    8657    8661    8662
    8658    8657    8661    8671    8659    8657    8661    8662
    8659    8657    8661    8671    8660    8657    8661    8662
    8660    8657    8661    8671    8661    8662    8665    8666
    8661    8662    8665    8667    8661    8662    8665    8668
    8661    8671    8668    8665    8661    8671    8668    8669
    8661    8671    8668    8670    8662    8661    8671    8668
    8662    8661    8671    8672    8662    8665    8668    8669
    8662    8665    8668    8670    8662    8665    8668    8671
    8663    8662    8661    8671    8663    8662    8665    8666
    8663    8662    8665    8667    8663    8662    8665    8668
    8664    8662    8661    8671    8664    8662    8665    8666
    8664    8662    8665    8667    8664    8662    8665    8668
    8665    8662    8661    8671    8665    8668    8671    8672
    8666    8665    8668    8669    8666    8665    8668    8670
    8666    8665    8668    8671    8667    8665    8668    8669
    8667    8665    8668    8670    8667    8665    8668    8671
    8669    8668    8671    8672    8670    8668    8671    8672
    8673    8677    8678    8679    8673    8677    8678    8680
    8673    8677    8678    8681    8673    8677    8687    8684
    8673    8677    8687    8688    8674    8673    8677    8678
    8674    8673    8677    8687    8675    8673    8677    8678
    8675    8673    8677    8687    8676    8673    8677    8678
    8676    8673    8677    8687    8677    8678    8681    8682
    8677    8678    8681    8683    8677    8678    8681    8684
    8677    8687    8684    8681    8677    8687    8684    8685
    8677    8687    8684    8686    8678    8677    8687    8684
    8678    8677    8687    8688    8678    8681    8684    8685
    8678    8681    8684    8686    8678    8681    8684    8687
    8679    8678    8677    8687    8679    8678    8681    8682
    8679    8678    8681    8683    8679    8678    8681    8684
    8680    8678    8677    8687    8680    8678    8681    8682
    8680    8678    8681    8683    8680    8678    8681    8684
    8681    8678    8677    8687    8681    8684    8687    8688
    8682    8681    8684    8685    8682    8681    8684    8686
    8682    8681    8684    8687    8683    8681    8684    8685
    8683    8681    8684    8686    8683    8681    8684    8687
    8685    8684    8687    8688    8686    8684    8687    8688
    8689    8693    8694    8695    8689    8693    8694    8696
    8689    8693    8694    8697    8689    8693    8703    8700
    8689    8693    8703    8704    8690    8689    8693    8694
    8690    8689    8693    8703    8691    8689    8693    8694
    8691    8689    8693    8703    8692    8689    8693    8694
    8692    8689    8693    8703    8693    8694    8697    8698
    8693    8694    8697    8699    8693    8694    8697    8700
    8693    8703    8700    8697    8693    8703    8700    8701
    8693    8703    8700    8702    8694    8693    8703    8700
    8694    8693    8703    8704    8694    8697    8700    8701
    8694    8697    8700    8702    8694    8697    8700    8703
    8695    8694    8693    8703    8695    8694    8697    8698
    8695    8694    8697    8699    8695    8694    8697    8700
    8696    8694    8693    8703    8696    8694    8697    8698
    8696    8694    8697    8699    8696    8694    8697    8700
    8697    8694    8693    8703    8697    8700    8703    8704
    8698    8697    8700    8701    8698    8697    8700    8702
    8698    8697    8700    8703    8699    8697    8700    8701
    8699    8697    8700    8702    8699    8697    8700    8703
    8701    8700    8703    8704    8702    8700    8703    8704
    8705    8709    8710    8711    8705    8709    8710    8712
    8705    8709    8710    8713    8705    8709    8719    8716
    8705    8709    8719    8720    8706    8705    8709    8710
    8706    8705    8709    8719    8707    8705    8709    8710
    8707    8705    8709    8719    8708    8705    8709    8710
    8708    8705    8709    8719    8709    8710    8713    8714
    8709    8710    8713    8715    8709    8710    8713    8716
    8709    8719    8716    8713    8709    8719    8716    8717
    8709    8719    8716    8718    8710    8709    8719    8716
    8710    8709    8719    8720    8710    8713    8716    8717
    8710    8713    8716    8718    8710    8713    8716    8719
    8711    8710    8709    8719    8711    8710    8713    8714
    8711    8710    8713    8715    8711    8710    8713    8716
    8712    8710    8709    8719    8712    8710    8713    8714
    8712    8710    8713    8715    8712    8710    8713    8716
    8713    8710    8709    8719    8713    8716    8719    8720
    8714    8713    8716    8717    8714    8713    8716    8718
    8714    8713    8716    8719    8715    8713    8716    8717
    8715    8713    8716    8718    8715    8713    8716    8719
    8717    8716    8719    8720    8718    8716    8719    8720
    8721    8725    8726    8727    8721    8725    8726    8728
    8721    8725    8726    8729    8721    8725    8735    8732
    8721    8725    8735    8736    8722    8721    8725    8726
    8722    8721    8725    8735    8723    8721    8725    8726
    8723    8721    8725    8735    8724    8721    8725    8726
    8724    8721    8725    8735    8725    8726    8729    8730
    8725    8726    8729    8731    8725    8726    8729    8732
    8725    8735    8732    8729    8725    8735    8732    8733
    8725    8735    8732    8734    8726    8725    8735    8732
    8726    8725    8735    8736    8726    8729    8732    8733
    8726    8729    8732    8734    8726    8729    8732    8735
    8727    8726    8725    8735    8727    8726    8729    8730
    8727    8726    8729    8731    8727    8726    8729    8732
    8728    8726    8725    8735    8728    8726    8729    8730
    8728    8726    8729    8731    8728    8726    8729    8732
    8729    8726    8725    8735    8729    8732    8735    8736
    8730    8729    8732    8733    8730    8729    8732    8734
    8730    8729    8732    8735    8731    8729    8732    8733
    8731    8729    8732    8734    8731    8729    8732    8735
    8733    8732    8735    8736    8734    8732    8735    8736
    8737    8741    8742    8743    8737    8741    8742    8744
    8737    8741    8742    8745    8737    8741    8751    8748
    8737    8741    8751    8752    8738    8737    8741    8742
    8738    8737    8741    8751    8739    8737    8741    8742
    8739    8737    8741    8751    8740    8737    8741    8742
    8740    8737    8741    8751    8741    8742    8745    8746
    8741    8742    8745    8747    8741    8742    8745    8748
    8741    8751    8748    8745    8741    8751    8748    8749
    8741    8751    8748    8750    8742    8741    8751    8748
    8742    8741    8751    8752    8742    8745    8748    8749
    8742    8745    8748    8750    8742    8745    8748    8751
    8743    8742    8741    8751    8743    8742    8745    8746
    8743    8742    8745    8747    8743    8742    8745    8748
    8744    8742    8741    8751    8744    8742    8745    8746
    8744    8742    8745    8747    8744    8742    8745    8748
    8745    8742    8741    8751    8745    8748    8751    8752
    8746    8745    8748    8749    8746    8745    8748    8750
    8746    8745    8748    8751    8747    8745    8748    8749
    8747    8745    8748    8750    8747    8745    8748    8751
    8749    8748    8751    8752    8750    8748    8751    8752
    8753    8757    8758    8759    8753    8757    8758    8760
    8753    8757    8758    8761    8753    8757    8767    8764
    8753    8757    8767    8768    8754    8753    8757    8758
    8754    8753    8757    8767    8755    8753    8757    8758
    8755    8753    8757    8767    8756    8753    8757    8758
    8756    8753    8757    8767    8757    8758    8761    8762
    8757    8758    8761    8763    8757    8758    8761    8764
    8757    8767    8764    8761    8757    8767    8764    8765
    8757    8767    8764    8766    8758    8757    8767    8764
    8758    8757    8767    8768    8758    8761    8764    8765
    8758    8761    8764    8766    8758    8761    8764    8767
    8759    8758    8757    8767    8759    8758    8761    8762
    8759    8758    8761    8763    8759    8758    8761    8764
    8760    8758    8757    8767    8760    8758    8761    8762
    8760    8758    8761    8763    8760    8758    8761    8764
    8761    8758    8757    8767    8761    8764    8767    8768
    8762    8761    8764    8765    8762    8761    8764    8766
    8762    8761    8764    8767    8763    8761    8764    8765
    8763    8761    8764    8766    8763    8761    8764    8767
    8765    8764    8767    8768    8766    8764    8767    8768
    8769    8773    8774    8775    8769    8773    8774    8776
    8769    8773    8774    8777    8769    8773    8783    8780
    8769    8773    8783    8784    8770    8769    8773    8774
    8770    8769    8773    8783    8771    8769    8773    8774
    8771    8769    8773    8783    8772    8769    8773    8774
    8772    8769    8773    8783    8773    8774    8777    8778
    8773    8774    8777    8779    8773    8774    8777    8780
    8773    8783    8780    8777    8773    8783    8780    8781
    8773    8783    8780    8782    8774    8773    8783    8780
    8774    8773    8783    8784    8774    8777    8780    8781
    8774    8777    8780    8782    8774    8777    8780    8783
    8775    8774    8773    8783    8775    8774    8777    8778
    8775    8774    8777    8779    8775    8774    8777    8780
    8776    8774    8773    8783    8776    8774    8777    8778
    8776    8774    8777    8779    8776    8774    8777    8780
    8777    8774    8773    8783    8777    8780    8783    8784
    8778    8777    8780    8781    8778    8777    8780    8782
    8778    8777    8780    8783    8779    8777    8780    8781
    8779    8777    8780    8782    8779    8777    8780    8783
    8781    8780    8783    8784    8782    8780    8783    8784
    8785    8789    8790    8791    8785    8789    8790    8792
    8785    8789    8790    8793    8785    8789    8799    8796
    8785    8789    8799    8800    8786    8785    8789    8790
    8786    8785    8789    8799    8787    8785    8789    8790
    8787    8785    8789    8799    8788    8785    8789    8790
    8788    8785    8789    8799    8789    8790    8793    8794
    8789    8790    8793    8795    8789    8790    8793    8796
    8789    8799    8796    8793    8789    8799    8796    8797
    8789    8799    8796    8798    8790    8789    8799    8796
    8790    8789    8799    8800    8790    8793    8796    8797
    8790    8793    8796    8798    8790    8793    8796    8799
    8791    8790    8789    8799    8791    8790    8793    8794
    8791    8790    8793    8795    8791    8790    8793    8796
    8792    8790    8789    8799    8792    8790    8793    8794
    8792    8790    8793    8795    8792    8790    8793    8796
    8793    8790    8789    8799    8793    8796    8799    8800
    8794    8793    8796    8797    8794    8793    8796    8798
    8794    8793    8796    8799    8795    8793    8796    8797
    8795    8793    8796    8798    8795    8793    8796    8799
    8797    8796    8799    8800    8798    8796    8799    8800
    8801    8805    8806    8807    8801    8805    8806    8808
    8801    8805    8806    8809    8801    8805    8815    8812
    8801    8805    8815    8816    8802    8801    8805    8806
    8802    8801    8805    8815    8803    8801    8805    8806
    8803    8801    8805    8815    8804    8801    8805    8806
    8804    8801    8805    8815    8805    8806    8809    8810
    8805    8806    8809    8811    8805    8806    8809    8812
    8805    8815    8812    8809    8805    8815    8812    8813
    8805    8815    8812    8814    8806    8805    8815    8812
    8806    8805    8815    8816    8806    8809    8812    8813
    8806    8809    8812    8814    8806    8809    8812    8815
    8807    8806    8805    8815    8807    8806    8809    8810
    8807    8806    8809    8811    8807    8806    8809    8812
    8808    8806    8805    8815    8808    8806    8809    8810
    8808    8806    8809    8811    8808    8806    8809    8812
    8809    8806    8805    8815    8809    8812    8815    8816
    8810    8809    8812    8813    8810    8809    8812    8814
    8810    8809    8812    8815    8811    8809    8812    8813
    8811    8809    8812    8814    8811    8809    8812    8815
    8813    8812    8815    8816    8814    8812    8815    8816
    8817    8821    8822    8823    8817    8821    8822    8824
    8817    8821    8822    8825    8817    8821    8831    8828
    8817    8821    8831    8832    8818    8817    8821    8822
    8818    8817    8821    8831    8819    8817    8821    8822
    8819    8817    8821    8831    8820    8817    8821    8822
    8820    8817    8821    8831    8821    8822    8825    8826
    8821    8822    8825    8827    8821    8822    8825    8828
    8821    8831    8828    8825    8821    8831    8828    8829
    8821    8831    8828    8830    8822    8821    8831    8828
    8822    8821    8831    8832    8822    8825    8828    8829
    8822    8825    8828    8830    8822    8825    8828    8831
    8823    8822    8821    8831    8823    8822    8825    8826
    8823    8822    8825    8827    8823    8822    8825    8828
    8824    8822    8821    8831    8824    8822    8825    8826
    8824    8822    8825    8827    8824    8822    8825    8828
    8825    8822    8821    8831    8825    8828    8831    8832
    8826    8825    8828    8829    8826    8825    8828    8830
    8826    8825    8828    8831    8827    8825    8828    8829
    8827    8825    8828    8830    8827    8825    8828    8831
    8829    8828    8831    8832    8830    8828    8831    8832
    8833    8837    8838    8839    8833    8837    8838    8840
    8833    8837    8838    8841    8833    8837    8847    8844
    8833    8837    8847    8848    8834    8833    8837    8838
    8834    8833    8837    8847    8835    8833    8837    8838
    8835    8833    8837    8847    8836    8833    8837    8838
    8836    8833    8837    8847    8837    8838    8841    8842
    8837    8838    8841    8843    8837    8838    8841    8844
    8837    8847    8844    8841    8837    8847    8844    8845
    8837    8847    8844    8846    8838    8837    8847    8844
    8838    8837    8847    8848    8838    8841    8844    8845
    8838    8841    8844    8846    8838    8841    8844    8847
    8839    8838    8837    8847    8839    8838    8841    8842
    8839    8838    8841    8843    8839    8838    8841    8844
    8840    8838    8837    8847    8840    8838    8841    8842
    8840    8838    8841    8843    8840    8838    8841    8844
    8841    8838    8837    8847    8841    8844    8847    8848
    8842    8841    8844    8845    8842    8841    8844    8846
    8842    8841    8844    8847    8843    8841    8844    8845
    8843    8841    8844    8846    8843    8841    8844    8847
    8845    8844    8847    8848    8846    8844    8847    8848
    8849    8853    8854    8855    8849    8853    8854    8856
    8849    8853    8854    8857    8849    8853    8863    8860
    8849    8853    8863    8864    8850    8849    8853    8854
    8850    8849    8853    8863    8851    8849    8853    8854
    8851    8849    8853    8863    8852    8849    8853    8854
    8852    8849    8853    8863    8853    8854    8857    8858
    8853    8854    8857    8859    8853    8854    8857    8860
    8853    8863    8860    8857    8853    8863    8860    8861
    8853    8863    8860    8862    8854    8853    8863    8860
    8854    8853    8863    8864    8854    8857    8860    8861
    8854    8857    8860    8862    8854    8857    8860    8863
    8855    8854    8853    8863    8855    8854    8857    8858
    8855    8854    8857    8859    8855    8854    8857    8860
    8856    8854    8853    8863    8856    8854    8857    8858
    8856    8854    8857    8859    8856    8854    8857    8860
    8857    8854    8853    8863    8857    8860    8863    8864
    8858    8857    8860    8861    8858    8857    8860    8862
    8858    8857    8860    8863    8859    8857    8860    8861
    8859    8857    8860    8862    8859    8857    8860    8863
    8861    8860    8863    8864    8862    8860    8863    8864
    8865    8869    8870    8871    8865    8869    8870    8872
    8865    8869    8870    8873    8865    8869    8879    8876
    8865    8869    8879    8880    8866    8865    8869    8870
    8866    8865    8869    8879    8867    8865    8869    8870
    8867    8865    8869    8879    8868    8865    8869    8870
    8868    8865    8869    8879    8869    8870    8873    8874
    8869    8870    8873    8875    8869    8870    8873    8876
    8869    8879    8876    8873    8869    8879    8876    8877
    8869    8879    8876    8878    8870    8869    8879    8876
    8870    8869    8879    8880    8870    8873    8876    8877
    8870    8873    8876    8878    8870    8873    8876    8879
    8871    8870    8869    8879    8871    8870    8873    8874
    8871    8870    8873    8875    8871    8870    8873    8876
    8872    8870    8869    8879    8872    8870    8873    8874
    8872    8870    8873    8875    8872    8870    8873    8876
    8873    8870    8869    8879    8873    8876    8879    8880
    8874    8873    8876    8877    8874    8873    8876    8878
    8874    8873    8876    8879    8875    8873    8876    8877
    8875    8873    8876    8878    8875    8873    8876    8879
    8877    8876    8879    8880    8878    8876    8879    8880
    8881    8885    8886    8887    8881    8885    8886    8888
    8881    8885    8886    8889    8881    8885    8895    8892
    8881    8885    8895    8896    8882    8881    8885    8886
    8882    8881    8885    8895    8883    8881    8885    8886
    8883    8881    8885    8895    8884    8881    8885    8886
    8884    8881    8885    8895    8885    8886    8889    8890
    8885    8886    8889    8891    8885    8886    8889    8892
    8885    8895    8892    8889    8885    8895    8892    8893
    8885    8895    8892    8894    8886    8885    8895    8892
    8886    8885    8895    8896    8886    8889    8892    8893
    8886    8889    8892    8894    8886    8889    8892    8895
    8887    8886    8885    8895    8887    8886    8889    8890
    8887    8886    8889    8891    8887    8886    8889    8892
    8888    8886    8885    8895    8888    8886    8889    8890
    8888    8886    8889    8891    8888    8886    8889    8892
    8889    8886    8885    8895    8889    8892    8895    8896
    8890    8889    8892    8893    8890    8889    8892    8894
    8890    8889    8892    8895    8891    8889    8892    8893
    8891    8889    8892    8894    8891    8889    8892    8895
    8893    8892    8895    8896    8894    8892    8895    8896
    8897    8901    8902    8903    8897    8901    8902    8904
    8897    8901    8902    8905    8897    8901    8911    8908
    8897    8901    8911    8912    8898    8897    8901    8902
    8898    8897    8901    8911    8899    8897    8901    8902
    8899    8897    8901    8911    8900    8897    8901    8902
    8900    8897    8901    8911    8901    8902    8905    8906
    8901    8902    8905    8907    8901    8902    8905    8908
    8901    8911    8908    8905    8901    8911    8908    8909
    8901    8911    8908    8910    8902    8901    8911    8908
    8902    8901    8911    8912    8902    8905    8908    8909
    8902    8905    8908    8910    8902    8905    8908    8911
    8903    8902    8901    8911    8903    8902    8905    8906
    8903    8902    8905    8907    8903    8902    8905    8908
    8904    8902    8901    8911    8904    8902    8905    8906
    8904    8902    8905    8907    8904    8902    8905    8908
    8905    8902    8901    8911    8905    8908    8911    8912
    8906    8905    8908    8909    8906    8905    8908    8910
    8906    8905    8908    8911    8907    8905    8908    8909
    8907    8905    8908    8910    8907    8905    8908    8911
    8909    8908    8911    8912    8910    8908    8911    8912
    8913    8917    8918    8919    8913    8917    8918    8920
    8913    8917    8918    8921    8913    8917    8927    8924
    8913    8917    8927    8928    8914    8913    8917    8918
    8914    8913    8917    8927    8915    8913    8917    8918
    8915    8913    8917    8927    8916    8913    8917    8918
    8916    8913    8917    8927    8917    8918    8921    8922
    8917    8918    8921    8923    8917    8918    8921    8924
    8917    8927    8924    8921    8917    8927    8924    8925
    8917    8927    8924    8926    8918    8917    8927    8924
    8918    8917    8927    8928    8918    8921    8924    8925
    8918    8921    8924    8926    8918    8921    8924    8927
    8919    8918    8917    8927    8919    8918    8921    8922
    8919    8918    8921    8923    8919    8918    8921    8924
    8920    8918    8917    8927    8920    8918    8921    8922
    8920    8918    8921    8923    8920    8918    8921    8924
    8921    8918    8917    8927    8921    8924    8927    8928
    8922    8921    8924    8925    8922    8921    8924    8926
    8922    8921    8924    8927    8923    8921    8924    8925
    8923    8921    8924    8926    8923    8921    8924    8927
    8925    8924    8927    8928    8926    8924    8927    8928
    8929    8933    8934    8935    8929    8933    8934    8936
    8929    8933    8934    8937    8929    8933    8943    8940
    8929    8933    8943    8944    8930    8929    8933    8934
    8930    8929    8933    8943    8931    8929    8933    8934
    8931    8929    8933    8943    8932    8929    8933    8934
    8932    8929    8933    8943    8933    8934    8937    8938
    8933    8934    8937    8939    8933    8934    8937    8940
    8933    8943    8940    8937    8933    8943    8940    8941
    8933    8943    8940    8942    8934    8933    8943    8940
    8934    8933    8943    8944    8934    8937    8940    8941
    8934    8937    8940    8942    8934    8937    8940    8943
    8935    8934    8933    8943    8935    8934    8937    8938
    8935    8934    8937    8939    8935    8934    8937    8940
    8936    8934    8933    8943    8936    8934    8937    8938
    8936    8934    8937    8939    8936    8934    8937    8940
    8937    8934    8933    8943    8937    8940    8943    8944
    8938    8937    8940    8941    8938    8937    8940    8942
    8938    8937    8940    8943    8939    8937    8940    8941
    8939    8937    8940    8942    8939    8937    8940    8943
    8941    8940    8943    8944    8942    8940    8943    8944
    8945    8949    8950    8951    8945    8949    8950    8952
    8945    8949    8950    8953    8945    8949    8959    8956
    8945    8949    8959    8960    8946    8945    8949    8950
    8946    8945    8949    8959    8947    8945    8949    8950
    8947    8945    8949    8959    8948    8945    8949    8950
    8948    8945    8949    8959    8949    8950    8953    8954
    8949    8950    8953    8955    8949    8950    8953    8956
    8949    8959    8956    8953    8949    8959    8956    8957
    8949    8959    8956    8958    8950    8949    8959    8956
    8950    8949    8959    8960    8950    8953    8956    8957
    8950    8953    8956    8958    8950    8953    8956    8959
    8951    8950    8949    8959    8951    8950    8953    8954
    8951    8950    8953    8955    8951    8950    8953    8956
    8952    8950    8949    8959    8952    8950    8953    8954
    8952    8950    8953    8955    8952    8950    8953    8956
    8953    8950    8949    8959    8953    8956    8959    8960
    8954    8953    8956    8957    8954    8953    8956    8958
    8954    8953    8956    8959    8955    8953    8956    8957
    8955    8953    8956    8958    8955    8953    8956    8959
    8957    8956    8959    8960    8958    8956    8959    8960
    8961    8965    8966    8967    8961    8965    8966    8968
    8961    8965    8966    8969    8961    8965    8975    8972
    8961    8965    8975    8976    8962    8961    8965    8966
    8962    8961    8965    8975    8963    8961    8965    8966
    8963    8961    8965    8975    8964    8961    8965    8966
    8964    8961    8965    8975    8965    8966    8969    8970
    8965    8966    8969    8971    8965    8966    8969    8972
    8965    8975    8972    8969    8965    8975    8972    8973
    8965    8975    8972    8974    8966    8965    8975    8972
    8966    8965    8975    8976    8966    8969    8972    8973
    8966    8969    8972    8974    8966    8969    8972    8975
    8967    8966    8965    8975    8967    8966    8969    8970
    8967    8966    8969    8971    8967    8966    8969    8972
    8968    8966    8965    8975    8968    8966    8969    8970
    8968    8966    8969    8971    8968    8966    8969    8972
    8969    8966    8965    8975    8969    8972    8975    8976
    8970    8969    8972    8973    8970    8969    8972    8974
    8970    8969    8972    8975    8971    8969    8972    8973
    8971    8969    8972    8974    8971    8969    8972    8975
    8973    8972    8975    8976    8974    8972    8975    8976
    8977    8981    8982    8983    8977    8981    8982    8984
    8977    8981    8982    8985    8977    8981    8991    8988
    8977    8981    8991    8992    8978    8977    8981    8982
    8978    8977    8981    8991    8979    8977    8981    8982
    8979    8977    8981    8991    8980    8977    8981    8982
    8980    8977    8981    8991    8981    8982    8985    8986
    8981    8982    8985    8987    8981    8982    8985    8988
    8981    8991    8988    8985    8981    8991    8988    8989
    8981    8991    8988    8990    8982    8981    8991    8988
    8982    8981    8991    8992    8982    8985    8988    8989
    8982    8985    8988    8990    8982    8985    8988    8991
    8983    8982    8981    8991    8983    8982    8985    8986
    8983    8982    8985    8987    8983    8982    8985    8988
    8984    8982    8981    8991    8984    8982    8985    8986
    8984    8982    8985    8987    8984    8982    8985    8988
    8985    8982    8981    8991    8985    8988    8991    8992
    8986    8985    8988    8989    8986    8985    8988    8990
    8986    8985    8988    8991    8987    8985    8988    8989
    8987    8985    8988    8990    8987    8985    8988    8991
    8989    8988    8991    8992    8990    8988    8991    8992
    8993    8997    8998    8999    8993    8997    8998    9000
    8993    8997    8998    9001    8993    8997    9007    9004
    8993    8997    9007    9008    8994    8993    8997    8998
    8994    8993    8997    9007    8995    8993    8997    8998
    8995    8993    8997    9007    8996    8993    8997    8998
    8996    8993    8997    9007    8997    8998    9001    9002
    8997    8998    9001    9003    8997    8998    9001    9004
    8997    9007    9004    9001    8997    9007    9004    9005
    8997    9007    9004    9006    8998    8997    9007    9004
    8998    8997    9007    9008    8998    9001    9004    9005
    8998    9001    9004    9006    8998    9001    9004    9007
    8999    8998    8997    9007    8999    8998    9001    9002
    8999    8998    9001    9003    8999    8998    9001    9004
    9000    8998    8997    9007    9000    8998    9001    9002
    9000    8998    9001    9003    9000    8998    9001    9004
    9001    8998    8997    9007    9001    9004    9007    9008
    9002    9001    9004    9005    9002    9001    9004    9006
    9002    9001    9004    9007    9003    9001    9004    9005
    9003    9001    9004    9006    9003    9001    9004    9007
    9005    9004    9007    9008    9006    9004    9007    9008
    9009    9013    9014    9015    9009    9013    9014    9016
    9009    9013    9014    9017    9009    9013    9023    9020
    9009    9013    9023    9024    9010    9009    9013    9014
    9010    9009    9013    9023    9011    9009    9013    9014
    9011    9009    9013    9023    9012    9009    9013    9014
    9012    9009    9013    9023    9013    9014    9017    9018
    9013    9014    9017    9019    9013    9014    9017    9020
    9013    9023    9020    9017    9013    9023    9020    9021
    9013    9023    9020    9022    9014    9013    9023    9020
    9014    9013    9023    9024    9014    9017    9020    9021
    9014    9017    9020    9022    9014    9017    9020    9023
    9015    9014    9013    9023    9015    9014    9017    9018
    9015    9014    9017    9019    9015    9014    9017    9020
    9016    9014    9013    9023    9016    9014    9017    9018
    9016    9014    9017    9019    9016    9014    9017    9020
    9017    9014    9013    9023    9017    9020    9023    9024
    9018    9017    9020    9021    9018    9017    9020    9022
    9018    9017    9020    9023    9019    9017    9020    9021
    9019    9017    9020    9022    9019    9017    9020    9023
    9021    9020    9023    9024    9022    9020    9023    9024
    9025    9029    9030    9031    9025    9029    9030    9032
    9025    9029    9030    9033    9025    9029    9039    9036
    9025    9029    9039    9040    9026    9025    9029    9030
    9026    9025    9029    9039    9027    9025    9029    9030
    9027    9025    9029    9039    9028    9025    9029    9030
    9028    9025    9029    9039    9029    9030    9033    9034
    9029    9030    9033    9035    9029    9030    9033    9036
    9029    9039    9036    9033    9029    9039    9036    9037
    9029    9039    9036    9038    9030    9029    9039    9036
    9030    9029    9039    9040    9030    9033    9036    9037
    9030    9033    9036    9038    9030    9033    9036    9039
    9031    9030    9029    9039    9031    9030    9033    9034
    9031    9030    9033    9035    9031    9030    9033    9036
    9032    9030    9029    9039    9032    9030    9033    9034
    9032    9030    9033    9035    9032    9030    9033    9036
    9033    9030    9029    9039    9033    9036    9039    9040
    9034    9033    9036    9037    9034    9033    9036    9038
    9034    9033    9036    9039    9035    9033    9036    9037
    9035    9033    9036    9038    9035    9033    9036    9039
    9037    9036    9039    9040    9038    9036    9039    9040
    9041    9045    9046    9047    9041    9045    9046    9048
    9041    9045    9046    9049    9041    9045    9055    9052
    9041    9045    9055    9056    9042    9041    9045    9046
    9042    9041    9045    9055    9043    9041    9045    9046
    9043    9041    9045    9055    9044    9041    9045    9046
    9044    9041    9045    9055    9045    9046    9049    9050
    9045    9046    9049    9051    9045    9046    9049    9052
    9045    9055    9052    9049    9045    9055    9052    9053
    9045    9055    9052    9054    9046    9045    9055    9052
    9046    9045    9055    9056    9046    9049    9052    9053
    9046    9049    9052    9054    9046    9049    9052    9055
    9047    9046    9045    9055    9047    9046    9049    9050
    9047    9046    9049    9051    9047    9046    9049    9052
    9048    9046    9045    9055    9048    9046    9049    9050
    9048    9046    9049    9051    9048    9046    9049    9052
    9049    9046    9045    9055    9049    9052    9055    9056
    9050    9049    9052    9053    9050    9049    9052    9054
    9050    9049    9052    9055    9051    9049    9052    9053
    9051    9049    9052    9054    9051    9049    9052    9055
    9053    9052    9055    9056    9054    9052    9055    9056
    9057    9061    9062    9063    9057    9061    9062    9064
    9057    9061    9062    9065    9057    9061    9071    9068
    9057    9061    9071    9072    9058    9057    9061    9062
    9058    9057    9061    9071    9059    9057    9061    9062
    9059    9057    9061    9071    9060    9057    9061    9062
    9060    9057    9061    9071    9061    9062    9065    9066
    9061    9062    9065    9067    9061    9062    9065    9068
    9061    9071    9068    9065    9061    9071    9068    9069
    9061    9071    9068    9070    9062    9061    9071    9068
    9062    9061    9071    9072    9062    9065    9068    9069
    9062    9065    9068    9070    9062    9065    9068    9071
    9063    9062    9061    9071    9063    9062    9065    9066
    9063    9062    9065    9067    9063    9062    9065    9068
    9064    9062    9061    9071    9064    9062    9065    9066
    9064    9062    9065    9067    9064    9062    9065    9068
    9065    9062    9061    9071    9065    9068    9071    9072
    9066    9065    9068    9069    9066    9065    9068    9070
    9066    9065    9068    9071    9067    9065    9068    9069
    9067    9065    9068    9070    9067    9065    9068    9071
    9069    9068    9071    9072    9070    9068    9071    9072
    9073    9077    9078    9079    9073    9077    9078    9080
    9073    9077    9078    9081    9073    9077    9087    9084
    9073    9077    9087    9088    9074    9073    9077    9078
    9074    9073    9077    9087    9075    9073    9077    9078
    9075    9073    9077    9087    9076    9073    9077    9078
    9076    9073    9077    9087    9077    9078    9081    9082
    9077    9078    9081    9083    9077    9078    9081    9084
    9077    9087    9084    9081    9077    9087    9084    9085
    9077    9087    9084    9086    9078    9077    9087    9084
    9078    9077    9087    9088    9078    9081    9084    9085
    9078    9081    9084    9086    9078    9081    9084    9087
    9079    9078    9077    9087    9079    9078    9081    9082
    9079    9078    9081    9083    9079    9078    9081    9084
    9080    9078    9077    9087    9080    9078    9081    9082
    9080    9078    9081    9083    9080    9078    9081    9084
    9081    9078    9077    9087    9081    9084    9087    9088
    9082    9081    9084    9085    9082    9081    9084    9086
    9082    9081    9084    9087    9083    9081    9084    9085
    9083    9081    9084    9086    9083    9081    9084    9087
    9085    9084    9087    9088    9086    9084    9087    9088
    9089    9093    9094    9095    9089    9093    9094    9096
    9089    9093    9094    9097    9089    9093    9103    9100
    9089    9093    9103    9104    9090    9089    9093    9094
    9090    9089    9093    9103    9091    9089    9093    9094
    9091    9089    9093    9103    9092    9089    9093    9094
    9092    9089    9093    9103    9093    9094    9097    9098
    9093    9094    9097    9099    9093    9094    9097    9100
    9093    9103    9100    9097    9093    9103    9100    9101
    9093    9103    9100    9102    9094    9093    9103    9100
    9094    9093    9103    9104    9094    9097    9100    9101
    9094    9097    9100    9102    9094    9097    9100    9103
    9095    9094    9093    9103    9095    9094    9097    9098
    9095    9094    9097    9099    9095    9094    9097    9100
    9096    9094    9093    9103    9096    9094    9097    9098
    9096    9094    9097    9099    9096    9094    9097    9100
    9097    9094    9093    9103    9097    9100    9103    9104
    9098    9097    9100    9101    9098    9097    9100    9102
    9098    9097    9100    9103    9099    9097    9100    9101
    9099    9097    9100    9102    9099    9097    9100    9103
    9101    9100    9103    9104    9102    9100    9103    9104
    9105    9109    9110    9111    9105    9109    9110    9112
    9105    9109    9110    9113    9105    9109    9119    9116
    9105    9109    9119    9120    9106    9105    9109    9110
    9106    9105    9109    9119    9107    9105    9109    9110
    9107    9105    9109    9119    9108    9105    9109    9110
    9108    9105    9109    9119    9109    9110    9113    9114
    9109    9110    9113    9115    9109    9110    9113    9116
    9109    9119    9116    9113    9109    9119    9116    9117
    9109    9119    9116    9118    9110    9109    9119    9116
    9110    9109    9119    9120    9110    9113    9116    9117
    9110    9113    9116    9118    9110    9113    9116    9119
    9111    9110    9109    9119    9111    9110    9113    9114
    9111    9110    9113    9115    9111    9110    9113    9116
    9112    9110    9109    9119    9112    9110    9113    9114
    9112    9110    9113    9115    9112    9110    9113    9116
    9113    9110    9109    9119    9113    9116    9119    9120
    9114    9113    9116    9117    9114    9113    9116    9118
    9114    9113    9116    9119    9115    9113    9116    9117
    9115    9113    9116    9118    9115    9113    9116    9119
    9117    9116    9119    9120    9118    9116    9119    9120
    9121    9125    9126    9127    9121    9125    9126    9128
    9121    9125    9126    9129    9121    9125    9135    9132
    9121    9125    9135    9136    9122    9121    9125    9126
    9122    9121    9125    9135    9123    9121    9125    9126
    9123    9121    9125    9135    9124    9121    9125    9126
    9124    9121    9125    9135    9125    9126    9129    9130
    9125    9126    9129    9131    9125    9126    9129    9132
    9125    9135    9132    9129    9125    9135    9132    9133
    9125    9135    9132    9134    9126    9125    9135    9132
    9126    9125    9135    9136    9126    9129    9132    9133
    9126    9129    9132    9134    9126    9129    9132    9135
    9127    9126    9125    9135    9127    9126    9129    9130
    9127    9126    9129    9131    9127    9126    9129    9132
    9128    9126    9125    9135    9128    9126    9129    9130
    9128    9126    9129    9131    9128    9126    9129    9132
    9129    9126    9125    9135    9129    9132    9135    9136
    9130    9129    9132    9133    9130    9129    9132    9134
    9130    9129    9132    9135    9131    9129    9132    9133
    9131    9129    9132    9134    9131    9129    9132    9135
    9133    9132    9135    9136    9134    9132    9135    9136
    9137    9141    9142    9143    9137    9141    9142    9144
    9137    9141    9142    9145    9137    9141    9151    9148
    9137    9141    9151    9152    9138    9137    9141    9142
    9138    9137    9141    9151    9139    9137    9141    9142
    9139    9137    9141    9151    9140    9137    9141    9142
    9140    9137    9141    9151    9141    9142    9145    9146
    9141    9142    9145    9147    9141    9142    9145    9148
    9141    9151    9148    9145    9141    9151    9148    9149
    9141    9151    9148    9150    9142    9141    9151    9148
    9142    9141    9151    9152    9142    9145    9148    9149
    9142    9145    9148    9150    9142    9145    9148    9151
    9143    9142    9141    9151    9143    9142    9145    9146
    9143    9142    9145    9147    9143    9142    9145    9148
    9144    9142    9141    9151    9144    9142    9145    9146
    9144    9142    9145    9147    9144    9142    9145    9148
    9145    9142    9141    9151    9145    9148    9151    9152
    9146    9145    9148    9149    9146    9145    9148    9150
    9146    9145    9148    9151    9147    9145    9148    9149
    9147    9145    9148    9150    9147    9145    9148    9151
    9149    9148    9151    9152    9150    9148    9151    9152
    9153    9157    9158    9159    9153    9157    9158    9160
    9153    9157    9158    9161    9153    9157    9167    9164
    9153    9157    9167    9168    9154    9153    9157    9158
    9154    9153    9157    9167    9155    9153    9157    9158
    9155    9153    9157    9167    9156    9153    9157    9158
    9156    9153    9157    9167    9157    9158    9161    9162
    9157    9158    9161    9163    9157    9158    9161    9164
    9157    9167    9164    9161    9157    9167    9164    9165
    9157    9167    9164    9166    9158    9157    9167    9164
    9158    9157    9167    9168    9158    9161    9164    9165
    9158    9161    9164    9166    9158    9161    9164    9167
    9159    9158    9157    9167    9159    9158    9161    9162
    9159    9158    9161    9163    9159    9158    9161    9164
    9160    9158    9157    9167    9160    9158    9161    9162
    9160    9158    9161    9163    9160    9158    9161    9164
    9161    9158    9157    9167    9161    9164    9167    9168
    9162    9161    9164    9165    9162    9161    9164    9166
    9162    9161    9164    9167    9163    9161    9164    9165
    9163    9161    9164    9166    9163    9161    9164    9167
    9165    9164    9167    9168    9166    9164    9167    9168
    9169    9173    9174    9175    9169    9173    9174    9176
    9169    9173    9174    9177    9169    9173    9183    9180
    9169    9173    9183    9184    9170    9169    9173    9174
    9170    9169    9173    9183    9171    9169    9173    9174
    9171    9169    9173    9183    9172    9169    9173    9174
    9172    9169    9173    9183    9173    9174    9177    9178
    9173    9174    9177    9179    9173    9174    9177    9180
    9173    9183    9180    9177    9173    9183    9180    9181
    9173    9183    9180    9182    9174    9173    9183    9180
    9174    9173    9183    9184    9174    9177    9180    9181
    9174    9177    9180    9182    9174    9177    9180    9183
    9175    9174    9173    9183    9175    9174    9177    9178
    9175    9174    9177    9179    9175    9174    9177    9180
    9176    9174    9173    9183    9176    9174    9177    9178
    9176    9174    9177    9179    9176    9174    9177    9180
    9177    9174    9173    9183    9177    9180    9183    9184
    9178    9177    9180    9181    9178    9177    9180    9182
    9178    9177    9180    9183    9179    9177    9180    9181
    9179    9177    9180    9182    9179    9177    9180    9183
    9181    9180    9183    9184    9182    9180    9183    9184
    9185    9189    9190    9191    9185    9189    9190    9192
    9185    9189    9190    9193    9185    9189    9199    9196
    9185    9189    9199    9200    9186    9185    9189    9190
    9186    9185    9189    9199    9187    9185    9189    9190
    9187    9185    9189    9199    9188    9185    9189    9190
    9188    9185    9189    9199    9189    9190    9193    9194
    9189    9190    9193    9195    9189    9190    9193    9196
    9189    9199    9196    9193    9189    9199    9196    9197
    9189    9199    9196    9198    9190    9189    9199    9196
    9190    9189    9199    9200    9190    9193    9196    9197
    9190    9193    9196    9198    9190    9193    9196    9199
    9191    9190    9189    9199    9191    9190    9193    9194
    9191    9190    9193    9195    9191    9190    9193    9196
    9192    9190    9189    9199    9192    9190    9193    9194
    9192    9190    9193    9195    9192    9190    9193    9196
    9193    9190    9189    9199    9193    9196    9199    9200
    9194    9193    9196    9197    9194    9193    9196    9198
    9194    9193    9196    9199    9195    9193    9196    9197
    9195    9193    9196    9198    9195    9193    9196    9199
    9197    9196    9199    9200    9198    9196    9199    9200
    9201    9205    9206    9207    9201    9205    9206    9208
    9201    9205    9206    9209    9201    9205    9215    9212
    9201    9205    9215    9216    9202    9201    9205    9206
    9202    9201    9205    9215    9203    9201    9205    9206
    9203    9201    9205    9215    9204    9201    9205    9206
    9204    9201    9205    9215    9205    9206    9209    9210
    9205    9206    9209    9211    9205    9206    9209    9212
    9205    9215    9212    9209    9205    9215    9212    9213
    9205    9215    9212    9214    9206    9205    9215    9212
    9206    9205    9215    9216    9206    9209    9212    9213
    9206    9209    9212    9214    9206    9209    9212    9215
    9207    9206    9205    9215    9207    9206    9209    9210
    9207    9206    9209    9211    9207    9206    9209    9212
    9208    9206    9205    9215    9208    9206    9209    9210
    9208    9206    9209    9211    9208    9206    9209    9212
    9209    9206    9205    9215    9209    9212    9215    9216
    9210    9209    9212    9213    9210    9209    9212    9214
    9210    9209    9212    9215    9211    9209    9212    9213
    9211    9209    9212    9214    9211    9209    9212    9215
    9213    9212    9215    9216    9214    9212    9215    9216
    9217    9221    9222    9223    9217    9221    9222    9224
    9217    9221    9222    9225    9217    9221    9231    9228
    9217    9221    9231    9232    9218    9217    9221    9222
    9218    9217    9221    9231    9219    9217    9221    9222
    9219    9217    9221    9231    9220    9217    9221    9222
    9220    9217    9221    9231    9221    9222    9225    9226
    9221    9222    9225    9227    9221    9222    9225    9228
    9221    9231    9228    9225    9221    9231    9228    9229
    9221    9231    9228    9230    9222    9221    9231    9228
    9222    9221    9231    9232    9222    9225    9228    9229
    9222    9225    9228    9230    9222    9225    9228    9231
    9223    9222    9221    9231    9223    9222    9225    9226
    9223    9222    9225    9227    9223    9222    9225    9228
    9224    9222    9221    9231    9224    9222    9225    9226
    9224    9222    9225    9227    9224    9222    9225    9228
    9225    9222    9221    9231    9225    9228    9231    9232
    9226    9225    9228    9229    9226    9225    9228    9230
    9226    9225    9228    9231    9227    9225    9228    9229
    9227    9225    9228    9230    9227    9225    9228    9231
    9229    9228    9231    9232    9230    9228    9231    9232
    9233    9237    9238    9239    9233    9237    9238    9240
    9233    9237    9238    9241    9233    9237    9247    9244
    9233    9237    9247    9248    9234    9233    9237    9238
    9234    9233    9237    9247    9235    9233    9237    9238
    9235    9233    9237    9247    9236    9233    9237    9238
    9236    9233    9237    9247    9237    9238    9241    9242
    9237    9238    9241    9243    9237    9238    9241    9244
    9237    9247    9244    9241    9237    9247    9244    9245
    9237    9247    9244    9246    9238    9237    9247    9244
    9238    9237    9247    9248    9238    9241    9244    9245
    9238    9241    9244    9246    9238    9241    9244    9247
    9239    9238    9237    9247    9239    9238    9241    9242
    9239    9238    9241    9243    9239    9238    9241    9244
    9240    9238    9237    9247    9240    9238    9241    9242
    9240    9238    9241    9243    9240    9238    9241    9244
    9241    9238    9237    9247    9241    9244    9247    9248
    9242    9241    9244    9245    9242    9241    9244    9246
    9242    9241    9244    9247    9243    9241    9244    9245
    9243    9241    9244    9246    9243    9241    9244    9247
    9245    9244    9247    9248    9246    9244    9247    9248
    9249    9253    9254    9255    9249    9253    9254    9256
    9249    9253    9254    9257    9249    9253    9263    9260
    9249    9253    9263    9264    9250    9249    9253    9254
    9250    9249    9253    9263    9251    9249    9253    9254
    9251    9249    9253    9263    9252    9249    9253    9254
    9252    9249    9253    9263    9253    9254    9257    9258
    9253    9254    9257    9259    9253    9254    9257    9260
    9253    9263    9260    9257    9253    9263    9260    9261
    9253    9263    9260    9262    9254    9253    9263    9260
    9254    9253    9263    9264    9254    9257    9260    9261
    9254    9257    9260    9262    9254    9257    9260    9263
    9255    9254    9253    9263    9255    9254    9257    9258
    9255    9254    9257    9259    9255    9254    9257    9260
    9256    9254    9253    9263    9256    9254    9257    9258
    9256    9254    9257    9259    9256    9254    9257    9260
    9257    9254    9253    9263    9257    9260    9263    9264
    9258    9257    9260    9261    9258    9257    9260    9262
    9258    9257    9260    9263    9259    9257    9260    9261
    9259    9257    9260    9262    9259    9257    9260    9263
    9261    9260    9263    9264    9262    9260    9263    9264
    9265    9269    9270    9271    9265    9269    9270    9272
    9265    9269    9270    9273    9265    9269    9279    9276
    9265    9269    9279    9280    9266    9265    9269    9270
    9266    9265    9269    9279    9267    9265    9269    9270
    9267    9265    9269    9279    9268    9265    9269    9270
    9268    9265    9269    9279    9269    9270    9273    9274
    9269    9270    9273    9275    9269    9270    9273    9276
    9269    9279    9276    9273    9269    9279    9276    9277
    9269    9279    9276    9278    9270    9269    9279    9276
    9270    9269    9279    9280    9270    9273    9276    9277
    9270    9273    9276    9278    9270    9273    9276    9279
    9271    9270    9269    9279    9271    9270    9273    9274
    9271    9270    9273    9275    9271    9270    9273    9276
    9272    9270    9269    9279    9272    9270    9273    9274
    9272    9270    9273    9275    9272    9270    9273    9276
    9273    9270    9269    9279    9273    9276    9279    9280
    9274    9273    9276    9277    9274    9273    9276    9278
    9274    9273    9276    9279    9275    9273    9276    9277
    9275    9273    9276    9278    9275    9273    9276    9279
    9277    9276    9279    9280    9278    9276    9279    9280
    9281    9285    9286    9287    9281    9285    9286    9288
    9281    9285    9286    9289    9281    9285    9295    9292
    9281    9285    9295    9296    9282    9281    9285    9286
    9282    9281    9285    9295    9283    9281    9285    9286
    9283    9281    9285    9295    9284    9281    9285    9286
    9284    9281    9285    9295    9285    9286    9289    9290
    9285    9286    9289    9291    9285    9286    9289    9292
    9285    9295    9292    9289    9285    9295    9292    9293
    9285    9295    9292    9294    9286    9285    9295    9292
    9286    9285    9295    9296    9286    9289    9292    9293
    9286    9289    9292    9294    9286    9289    9292    9295
    9287    9286    9285    9295    9287    9286    9289    9290
    9287    9286    9289    9291    9287    9286    9289    9292
    9288    9286    9285    9295    9288    9286    9289    9290
    9288    9286    9289    9291    9288    9286    9289    9292
    9289    9286    9285    9295    9289    9292    9295    9296
    9290    9289    9292    9293    9290    9289    9292    9294
    9290    9289    9292    9295    9291    9289    9292    9293
    9291    9289    9292    9294    9291    9289    9292    9295
    9293    9292    9295    9296    9294    9292    9295    9296
    9297    9301    9302    9303    9297    9301    9302    9304
    9297    9301    9302    9305    9297    9301    9311    9308
    9297    9301    9311    9312    9298    9297    9301    9302
    9298    9297    9301    9311    9299    9297    9301    9302
    9299    9297    9301    9311    9300    9297    9301    9302
    9300    9297    9301    9311    9301    9302    9305    9306
    9301    9302    9305    9307    9301    9302    9305    9308
    9301    9311    9308    9305    9301    9311    9308    9309
    9301    9311    9308    9310    9302    9301    9311    9308
    9302    9301    9311    9312    9302    9305    9308    9309
    9302    9305    9308    9310    9302    9305    9308    9311
    9303    9302    9301    9311    9303    9302    9305    9306
    9303    9302    9305    9307    9303    9302    9305    9308
    9304    9302    9301    9311    9304    9302    9305    9306
    9304    9302    9305    9307    9304    9302    9305    9308
    9305    9302    9301    9311    9305    9308    9311    9312
    9306    9305    9308    9309    9306    9305    9308    9310
    9306    9305    9308    9311    9307    9305    9308    9309
    9307    9305    9308    9310    9307    9305    9308    9311
    9309    9308    9311    9312    9310    9308    9311    9312
    9313    9317    9318    9319    9313    9317    9318    9320
    9313    9317    9318    9321    9313    9317    9327    9324
    9313    9317    9327    9328    9314    9313    9317    9318
    9314    9313    9317    9327    9315    9313    9317    9318
    9315    9313    9317    9327    9316    9313    9317    9318
    9316    9313    9317    9327    9317    9318    9321    9322
    9317    9318    9321    9323    9317    9318    9321    9324
    9317    9327    9324    9321    9317    9327    9324    9325
    9317    9327    9324    9326    9318    9317    9327    9324
    9318    9317    9327    9328    9318    9321    9324    9325
    9318    9321    9324    9326    9318    9321    9324    9327
    9319    9318    9317    9327    9319    9318    9321    9322
    9319    9318    9321    9323    9319    9318    9321    9324
    9320    9318    9317    9327    9320    9318    9321    9322
    9320    9318    9321    9323    9320    9318    9321    9324
    9321    9318    9317    9327    9321    9324    9327    9328
    9322    9321    9324    9325    9322    9321    9324    9326
    9322    9321    9324    9327    9323    9321    9324    9325
    9323    9321    9324    9326    9323    9321    9324    9327
    9325    9324    9327    9328    9326    9324    9327    9328
    9329    9333    9334    9335    9329    9333    9334    9336
    9329    9333    9334    9337    9329    9333    9343    9340
    9329    9333    9343    9344    9330    9329    9333    9334
    9330    9329    9333    9343    9331    9329    9333    9334
    9331    9329    9333    9343    9332    9329    9333    9334
    9332    9329    9333    9343    9333    9334    9337    9338
    9333    9334    9337    9339    9333    9334    9337    9340
    9333    9343    9340    9337    9333    9343    9340    9341
    9333    9343    9340    9342    9334    9333    9343    9340
    9334    9333    9343    9344    9334    9337    9340    9341
    9334    9337    9340    9342    9334    9337    9340    9343
    9335    9334    9333    9343    9335    9334    9337    9338
    9335    9334    9337    9339    9335    9334    9337    9340
    9336    9334    9333    9343    9336    9334    9337    9338
    9336    9334    9337    9339    9336    9334    9337    9340
    9337    9334    9333    9343    9337    9340    9343    9344
    9338    9337    9340    9341    9338    9337    9340    9342
    9338    9337    9340    9343    9339    9337    9340    9341
    9339    9337    9340    9342    9339    9337    9340    9343
    9341    9340    9343    9344    9342    9340    9343    9344
    9345    9349    9350    9351    9345    9349    9350    9352
    9345    9349    9350    9353    9345    9349    9359    9356
    9345    9349    9359    9360    9346    9345    9349    9350
    9346    9345    9349    9359    9347    9345    9349    9350
    9347    9345    9349    9359    9348    9345    9349    9350
    9348    9345    9349    9359    9349    9350    9353    9354
    9349    9350    9353    9355    9349    9350    9353    9356
    9349    9359    9356    9353    9349    9359    9356    9357
    9349    9359    9356    9358    9350    9349    9359    9356
    9350    9349    9359    9360    9350    9353    9356    9357
    9350    9353    9356    9358    9350    9353    9356    9359
    9351    9350    9349    9359    9351    9350    9353    9354
    9351    9350    9353    9355    9351    9350    9353    9356
    9352    9350    9349    9359    9352    9350    9353    9354
    9352    9350    9353    9355    9352    9350    9353    9356
    9353    9350    9349    9359    9353    9356    9359    9360
    9354    9353    9356    9357    9354    9353    9356    9358
    9354    9353    9356    9359    9355    9353    9356    9357
    9355    9353    9356    9358    9355    9353    9356    9359
    9357    9356    9359    9360    9358    9356    9359    9360
    9361    9365    9366    9367    9361    9365    9366    9368
    9361    9365    9366    9369    9361    9365    9375    9372
    9361    9365    9375    9376    9362    9361    9365    9366
    9362    9361    9365    9375    9363    9361    9365    9366
    9363    9361    9365    9375    9364    9361    9365    9366
    9364    9361    9365    9375    9365    9366    9369    9370
    9365    9366    9369    9371    9365    9366    9369    9372
    9365    9375    9372    9369    9365    9375    9372    9373
    9365    9375    9372    9374    9366    9365    9375    9372
    9366    9365    9375    9376    9366    9369    9372    9373
    9366    9369    9372    9374    9366    9369    9372    9375
    9367    9366    9365    9375    9367    9366    9369    9370
    9367    9366    9369    9371    9367    9366    9369    9372
    9368    9366    9365    9375    9368    9366    9369    9370
    9368    9366    9369    9371    9368    9366    9369    9372
    9369    9366    9365    9375    9369    9372    9375    9376
    9370    9369    9372    9373    9370    9369    9372    9374
    9370    9369    9372    9375    9371    9369    9372    9373
    9371    9369    9372    9374    9371    9369    9372    9375
    9373    9372    9375    9376    9374    9372    9375    9376
    9377    9381    9382    9383    9377    9381    9382    9384
    9377    9381    9382    9385    9377    9381    9391    9388
    9377    9381    9391    9392    9378    9377    9381    9382
    9378    9377    9381    9391    9379    9377    9381    9382
    9379    9377    9381    9391    9380    9377    9381    9382
    9380    9377    9381    9391    9381    9382    9385    9386
    9381    9382    9385    9387    9381    9382    9385    9388
    9381    9391    9388    9385    9381    9391    9388    9389
    9381    9391    9388    9390    9382    9381    9391    9388
    9382    9381    9391    9392    9382    9385    9388    9389
    9382    9385    9388    9390    9382    9385    9388    9391
    9383    9382    9381    9391    9383    9382    9385    9386
    9383    9382    9385    9387    9383    9382    9385    9388
    9384    9382    9381    9391    9384    9382    9385    9386
    9384    9382    9385    9387    9384    9382    9385    9388
    9385    9382    9381    9391    9385    9388    9391    9392
    9386    9385    9388    9389    9386    9385    9388    9390
    9386    9385    9388    9391    9387    9385    9388    9389
    9387    9385    9388    9390    9387    9385    9388    9391
    9389    9388    9391    9392    9390    9388    9391    9392
    9393    9397    9398    9399    9393    9397    9398    9400
    9393    9397    9398    9401    9393    9397    9407    9404
    9393    9397    9407    9408    9394    9393    9397    9398
    9394    9393    9397    9407    9395    9393    9397    9398
    9395    9393    9397    9407    9396    9393    9397    9398
    9396    9393    9397    9407    9397    9398    9401    9402
    9397    9398    9401    9403    9397    9398    9401    9404
    9397    9407    9404    9401    9397    9407    9404    9405
    9397    9407    9404    9406    9398    9397    9407    9404
    9398    9397    9407    9408    9398    9401    9404    9405
    9398    9401    9404    9406    9398    9401    9404    9407
    9399    9398    9397    9407    9399    9398    9401    9402
    9399    9398    9401    9403    9399    9398    9401    9404
    9400    9398    9397    9407    9400    9398    9401    9402
    9400    9398    9401    9403    9400    9398    9401    9404
    9401    9398    9397    9407    9401    9404    9407    9408
    9402    9401    9404    9405    9402    9401    9404    9406
    9402    9401    9404    9407    9403    9401    9404    9405
    9403    9401    9404    9406    9403    9401    9404    9407
    9405    9404    9407    9408    9406    9404    9407    9408
    9409    9413    9414    9415    9409    9413    9414    9416
    9409    9413    9414    9417    9409    9413    9423    9420
    9409    9413    9423    9424    9410    9409    9413    9414
    9410    9409    9413    9423    9411    9409    9413    9414
    9411    9409    9413    9423    9412    9409    9413    9414
    9412    9409    9413    9423    9413    9414    9417    9418
    9413    9414    9417    9419    9413    9414    9417    9420
    9413    9423    9420    9417    9413    9423    9420    9421
    9413    9423    9420    9422    9414    9413    9423    9420
    9414    9413    9423    9424    9414    9417    9420    9421
    9414    9417    9420    9422    9414    9417    9420    9423
    9415    9414    9413    9423    9415    9414    9417    9418
    9415    9414    9417    9419    9415    9414    9417    9420
    9416    9414    9413    9423    9416    9414    9417    9418
    9416    9414    9417    9419    9416    9414    9417    9420
    9417    9414    9413    9423    9417    9420    9423    9424
    9418    9417    9420    9421    9418    9417    9420    9422
    9418    9417    9420    9423    9419    9417    9420    9421
    9419    9417    9420    9422    9419    9417    9420    9423
    9421    9420    9423    9424    9422    9420    9423    9424
    9425    9429    9430    9431    9425    9429    9430    9432
    9425    9429    9430    9433    9425    9429    9439    9436
    9425    9429    9439    9440    9426    9425    9429    9430
    9426    9425    9429    9439    9427    9425    9429    9430
    9427    9425    9429    9439    9428    9425    9429    9430
    9428    9425    9429    9439    9429    9430    9433    9434
    9429    9430    9433    9435    9429    9430    9433    9436
    9429    9439    9436    9433    9429    9439    9436    9437
    9429    9439    9436    9438    9430    9429    9439    9436
    9430    9429    9439    9440    9430    9433    9436    9437
    9430    9433    9436    9438    9430    9433    9436    9439
    9431    9430    9429    9439    9431    9430    9433    9434
    9431    9430    9433    9435    9431    9430    9433    9436
    9432    9430    9429    9439    9432    9430    9433    9434
    9432    9430    9433    9435    9432    9430    9433    9436
    9433    9430    9429    9439    9433    9436    9439    9440
    9434    9433    9436    9437    9434    9433    9436    9438
    9434    9433    9436    9439    9435    9433    9436    9437
    9435    9433    9436    9438    9435    9433    9436    9439
    9437    9436    9439    9440    9438    9436    9439    9440
    9441    9445    9446    9447    9441    9445    9446    9448
    9441    9445    9446    9449    9441    9445    9455    9452
    9441    9445    9455    9456    9442    9441    9445    9446
    9442    9441    9445    9455    9443    9441    9445    9446
    9443    9441    9445    9455    9444    9441    9445    9446
    9444    9441    9445    9455    9445    9446    9449    9450
    9445    9446    9449    9451    9445    9446    9449    9452
    9445    9455    9452    9449    9445    9455    9452    9453
    9445    9455    9452    9454    9446    9445    9455    9452
    9446    9445    9455    9456    9446    9449    9452    9453
    9446    9449    9452    9454    9446    9449    9452    9455
    9447    9446    9445    9455    9447    9446    9449    9450
    9447    9446    9449    9451    9447    9446    9449    9452
    9448    9446    9445    9455    9448    9446    9449    9450
    9448    9446    9449    9451    9448    9446    9449    9452
    9449    9446    9445    9455    9449    9452    9455    9456
    9450    9449    9452    9453    9450    9449    9452    9454
    9450    9449    9452    9455    9451    9449    9452    9453
    9451    9449    9452    9454    9451    9449    9452    9455
    9453    9452    9455    9456    9454    9452    9455    9456
    9457    9461    9462    9463    9457    9461    9462    9464
    9457    9461    9462    9465    9457    9461    9471    9468
    9457    9461    9471    9472    9458    9457    9461    9462
    9458    9457    9461    9471    9459    9457    9461    9462
    9459    9457    9461    9471    9460    9457    9461    9462
    9460    9457    9461    9471    9461    9462    9465    9466
    9461    9462    9465    9467    9461    9462    9465    9468
    9461    9471    9468    9465    9461    9471    9468    9469
    9461    9471    9468    9470    9462    9461    9471    9468
    9462    9461    9471    9472    9462    9465    9468    9469
    9462    9465    9468    9470    9462    9465    9468    9471
    9463    9462    9461    9471    9463    9462    9465    9466
    9463    9462    9465    9467    9463    9462    9465    9468
    9464    9462    9461    9471    9464    9462    9465    9466
    9464    9462    9465    9467    9464    9462    9465    9468
    9465    9462    9461    9471    9465    9468    9471    9472
    9466    9465    9468    9469    9466    9465    9468    9470
    9466    9465    9468    9471    9467    9465    9468    9469
    9467    9465    9468    9470    9467    9465    9468    9471
    9469    9468    9471    9472    9470    9468    9471    9472
    9473    9477    9478    9479    9473    9477    9478    9480
    9473    9477    9478    9481    9473    9477    9487    9484
    9473    9477    9487    9488    9474    9473    9477    9478
    9474    9473    9477    9487    9475    9473    9477    9478
    9475    9473    9477    9487    9476    9473    9477    9478
    9476    9473    9477    9487    9477    9478    9481    9482
    9477    9478    9481    9483    9477    9478    9481    9484
    9477    9487    9484    9481    9477    9487    9484    9485
    9477    9487    9484    9486    9478    9477    9487    9484
    9478    9477    9487    9488    9478    9481    9484    9485
    9478    9481    9484    9486    9478    9481    9484    9487
    9479    9478    9477    9487    9479    9478    9481    9482
    9479    9478    9481    9483    9479    9478    9481    9484
    9480    9478    9477    9487    9480    9478    9481    9482
    9480    9478    9481    9483    9480    9478    9481    9484
    9481    9478    9477    9487    9481    9484    9487    9488
    9482    9481    9484    9485    9482    9481    9484    9486
    9482    9481    9484    9487    9483    9481    9484    9485
    9483    9481    9484    9486    9483    9481    9484    9487
    9485    9484    9487    9488    9486    9484    9487    9488
    9489    9493    9494    9495    9489    9493    9494    9496
    9489    9493    9494    9497    9489    9493    9503    9500
    9489    9493    9503    9504    9490    9489    9493    9494
    9490    9489    9493    9503    9491    9489    9493    9494
    9491    9489    9493    9503    9492    9489    9493    9494
    9492    9489    9493    9503    9493    9494    9497    9498
    9493    9494    9497    9499    9493    9494    9497    9500
    9493    9503    9500    9497    9493    9503    9500    9501
    9493    9503    9500    9502    9494    9493    9503    9500
    9494    9493    9503    9504    9494    9497    9500    9501
    9494    9497    9500    9502    9494    9497    9500    9503
    9495    9494    9493    9503    9495    9494    9497    9498
    9495    9494    9497    9499    9495    9494    9497    9500
    9496    9494    9493    9503    9496    9494    9497    9498
    9496    9494    9497    9499    9496    9494    9497    9500
    9497    9494    9493    9503    9497    9500    9503    9504
    9498    9497    9500    9501    9498    9497    9500    9502
    9498    9497    9500    9503    9499    9497    9500    9501
    9499    9497    9500    9502    9499    9497    9500    9503
    9501    9500    9503    9504    9502    9500    9503    9504
    9505    9509    9510    9511    9505    9509    9510    9512
    9505    9509    9510    9513    9505    9509    9519    9516
    9505    9509    9519    9520    9506    9505    9509    9510
    9506    9505    9509    9519    9507    9505    9509    9510
    9507    9505    9509    9519    9508    9505    9509    9510
    9508    9505    9509    9519    9509    9510    9513    9514
    9509    9510    9513    9515    9509    9510    9513    9516
    9509    9519    9516    9513    9509    9519    9516    9517
    9509    9519    9516    9518    9510    9509    9519    9516
    9510    9509    9519    9520    9510    9513    9516    9517
    9510    9513    9516    9518    9510    9513    9516    9519
    9511    9510    9509    9519    9511    9510    9513    9514
    9511    9510    9513    9515    9511    9510    9513    9516
    9512    9510    9509    9519    9512    9510    9513    9514
    9512    9510    9513    9515    9512    9510    9513    9516
    9513    9510    9509    9519    9513    9516    9519    9520
    9514    9513    9516    9517    9514    9513    9516    9518
    9514    9513    9516    9519    9515    9513    9516    9517
    9515    9513    9516    9518    9515    9513    9516    9519
    9517    9516    9519    9520    9518    9516    9519    9520
    9521    9525    9526    9527    9521    9525    9526    9528
    9521    9525    9526    9529    9521    9525    9535    9532
    9521    9525    9535    9536    9522    9521    9525    9526
    9522    9521    9525    9535    9523    9521    9525    9526
    9523    9521    9525    9535    9524    9521    9525    9526
    9524    9521    9525    9535    9525    9526    9529    9530
    9525    9526    9529    9531    9525    9526    9529    9532
    9525    9535    9532    9529    9525    9535    9532    9533
    9525    9535    9532    9534    9526    9525    9535    9532
    9526    9525    9535    9536    9526    9529    9532    9533
    9526    9529    9532    9534    9526    9529    9532    9535
    9527    9526    9525    9535    9527    9526    9529    9530
    9527    9526    9529    9531    9527    9526    9529    9532
    9528    9526    9525    9535    9528    9526    9529    9530
    9528    9526    9529    9531    9528    9526    9529    9532
    9529    9526    9525    9535    9529    9532    9535    9536
    9530    9529    9532    9533    9530    9529    9532    9534
    9530    9529    9532    9535    9531    9529    9532    9533
    9531    9529    9532    9534    9531    9529    9532    9535
    9533    9532    9535    9536    9534    9532    9535    9536
    9537    9541    9542    9543    9537    9541    9542    9544
    9537    9541    9542    9545    9537    9541    9551    9548
    9537    9541    9551    9552    9538    9537    9541    9542
    9538    9537    9541    9551    9539    9537    9541    9542
    9539    9537    9541    9551    9540    9537    9541    9542
    9540    9537    9541    9551    9541    9542    9545    9546
    9541    9542    9545    9547    9541    9542    9545    9548
    9541    9551    9548    9545    9541    9551    9548    9549
    9541    9551    9548    9550    9542    9541    9551    9548
    9542    9541    9551    9552    9542    9545    9548    9549
    9542    9545    9548    9550    9542    9545    9548    9551
    9543    9542    9541    9551    9543    9542    9545    9546
    9543    9542    9545    9547    9543    9542    9545    9548
    9544    9542    9541    9551    9544    9542    9545    9546
    9544    9542    9545    9547    9544    9542    9545    9548
    9545    9542    9541    9551    9545    9548    9551    9552
    9546    9545    9548    9549    9546    9545    9548    9550
    9546    9545    9548    9551    9547    9545    9548    9549
    9547    9545    9548    9550    9547    9545    9548    9551
    9549    9548    9551    9552    9550    9548    9551    9552
    9553    9557    9558    9559    9553    9557    9558    9560
    9553    9557    9558    9561    9553    9557    9567    9564
    9553    9557    9567    9568    9554    9553    9557    9558
    9554    9553    9557    9567    9555    9553    9557    9558
    9555    9553    9557    9567    9556    9553    9557    9558
    9556    9553    9557    9567    9557    9558    9561    9562
    9557    9558    9561    9563    9557    9558    9561    9564
    9557    9567    9564    9561    9557    9567    9564    9565
    9557    9567    9564    9566    9558    9557    9567    9564
    9558    9557    9567    9568    9558    9561    9564    9565
    9558    9561    9564    9566    9558    9561    9564    9567
    9559    9558    9557    9567    9559    9558    9561    9562
    9559    9558    9561    9563    9559    9558    9561    9564
    9560    9558    9557    9567    9560    9558    9561    9562
    9560    9558    9561    9563    9560    9558    9561    9564
    9561    9558    9557    9567    9561    9564    9567    9568
    9562    9561    9564    9565    9562    9561    9564    9566
    9562    9561    9564    9567    9563    9561    9564    9565
    9563    9561    9564    9566    9563    9561    9564    9567
    9565    9564    9567    9568    9566    9564    9567    9568
    9569    9573    9574    9575    9569    9573    9574    9576
    9569    9573    9574    9577    9569    9573    9583    9580
    9569    9573    9583    9584    9570    9569    9573    9574
    9570    9569    9573    9583    9571    9569    9573    9574
    9571    9569    9573    9583    9572    9569    9573    9574
    9572    9569    9573    9583    9573    9574    9577    9578
    9573    9574    9577    9579    9573    9574    9577    9580
    9573    9583    9580    9577    9573    9583    9580    9581
    9573    9583    9580    9582    9574    9573    9583    9580
    9574    9573    9583    9584    9574    9577    9580    9581
    9574    9577    9580    9582    9574    9577    9580    9583
    9575    9574    9573    9583    9575    9574    9577    9578
    9575    9574    9577    9579    9575    9574    9577    9580
    9576    9574    9573    9583    9576    9574    9577    9578
    9576    9574    9577    9579    9576    9574    9577    9580
    9577    9574    9573    9583    9577    9580    9583    9584
    9578    9577    9580    9581    9578    9577    9580    9582
    9578    9577    9580    9583    9579    9577    9580    9581
    9579    9577    9580    9582    9579    9577    9580    9583
    9581    9580    9583    9584    9582    9580    9583    9584
    9585    9589    9590    9591    9585    9589    9590    9592
    9585    9589    9590    9593    9585    9589    9599    9596
    9585    9589    9599    9600    9586    9585    9589    9590
    9586    9585    9589    9599    9587    9585    9589    9590
    9587    9585    9589    9599    9588    9585    9589    9590
    9588    9585    9589    9599    9589    9590    9593    9594
    9589    9590    9593    9595    9589    9590    9593    9596
    9589    9599    9596    9593    9589    9599    9596    9597
    9589    9599    9596    9598    9590    9589    9599    9596
    9590    9589    9599    9600    9590    9593    9596    9597
    9590    9593    9596    9598    9590    9593    9596    9599
    9591    9590    9589    9599    9591    9590    9593    9594
    9591    9590    9593    9595    9591    9590    9593    9596
    9592    9590    9589    9599    9592    9590    9593    9594
    9592    9590    9593    9595    9592    9590    9593    9596
    9593    9590    9589    9599    9593    9596    9599    9600
    9594    9593    9596    9597    9594    9593    9596    9598
    9594    9593    9596    9599    9595    9593    9596    9597
    9595    9593    9596    9598    9595    9593    9596    9599
    9597    9596    9599    9600    9598    9596    9599    9600
    9601    9605    9606    9607    9601    9605    9606    9608
    9601    9605    9606    9609    9601    9605    9615    9612
    9601    9605    9615    9616    9602    9601    9605    9606
    9602    9601    9605    9615    9603    9601    9605    9606
    9603    9601    9605    9615    9604    9601    9605    9606
    9604    9601    9605    9615    9605    9606    9609    9610
    9605    9606    9609    9611    9605    9606    9609    9612
    9605    9615    9612    9609    9605    9615    9612    9613
    9605    9615    9612    9614    9606    9605    9615    9612
    9606    9605    9615    9616    9606    9609    9612    9613
    9606    9609    9612    9614    9606    9609    9612    9615
    9607    9606    9605    9615    9607    9606    9609    9610
    9607    9606    9609    9611    9607    9606    9609    9612
    9608    9606    9605    9615    9608    9606    9609    9610
    9608    9606    9609    9611    9608    9606    9609    9612
    9609    9606    9605    9615    9609    9612    9615    9616
    9610    9609    9612    9613    9610    9609    9612    9614
    9610    9609    9612    9615    9611    9609    9612    9613
    9611    9609    9612    9614    9611    9609    9612    9615
    9613    9612    9615    9616    9614    9612    9615    9616
    9617    9621    9622    9623    9617    9621    9622    9624
    9617    9621    9622    9625    9617    9621    9631    9628
    9617    9621    9631    9632    9618    9617    9621    9622
    9618    9617    9621    9631    9619    9617    9621    9622
    9619    9617    9621    9631    9620    9617    9621    9622
    9620    9617    9621    9631    9621    9622    9625    9626
    9621    9622    9625    9627    9621    9622    9625    9628
    9621    9631    9628    9625    9621    9631    9628    9629
    9621    9631    9628    9630    9622    9621    9631    9628
    9622    9621    9631    9632    9622    9625    9628    9629
    9622    9625    9628    9630    9622    9625    9628    9631
    9623    9622    9621    9631    9623    9622    9625    9626
    9623    9622    9625    9627    9623    9622    9625    9628
    9624    9622    9621    9631    9624    9622    9625    9626
    9624    9622    9625    9627    9624    9622    9625    9628
    9625    9622    9621    9631    9625    9628    9631    9632
    9626    9625    9628    9629    9626    9625    9628    9630
    9626    9625    9628    9631    9627    9625    9628    9629
    9627    9625    9628    9630    9627    9625    9628    9631
    9629    9628    9631    9632    9630    9628    9631    9632
    9633    9637    9638    9639    9633    9637    9638    9640
    9633    9637    9638    9641    9633    9637    9647    9644
    9633    9637    9647    9648    9634    9633    9637    9638
    9634    9633    9637    9647    9635    9633    9637    9638
    9635    9633    9637    9647    9636    9633    9637    9638
    9636    9633    9637    9647    9637    9638    9641    9642
    9637    9638    9641    9643    9637    9638    9641    9644
    9637    9647    9644    9641    9637    9647    9644    9645
    9637    9647    9644    9646    9638    9637    9647    9644
    9638    9637    9647    9648    9638    9641    9644    9645
    9638    9641    9644    9646    9638    9641    9644    9647
    9639    9638    9637    9647    9639    9638    9641    9642
    9639    9638    9641    9643    9639    9638    9641    9644
    9640    9638    9637    9647    9640    9638    9641    9642
    9640    9638    9641    9643    9640    9638    9641    9644
    9641    9638    9637    9647    9641    9644    9647    9648
    9642    9641    9644    9645    9642    9641    9644    9646
    9642    9641    9644    9647    9643    9641    9644    9645
    9643    9641    9644    9646    9643    9641    9644    9647
    9645    9644    9647    9648    9646    9644    9647    9648
    9649    9653    9654    9655    9649    9653    9654    9656
    9649    9653    9654    9657    9649    9653    9663    9660
    9649    9653    9663    9664    9650    9649    9653    9654
    9650    9649    9653    9663    9651    9649    9653    9654
    9651    9649    9653    9663    9652    9649    9653    9654
    9652    9649    9653    9663    9653    9654    9657    9658
    9653    9654    9657    9659    9653    9654    9657    9660
    9653    9663    9660    9657    9653    9663    9660    9661
    9653    9663    9660    9662    9654    9653    9663    9660
    9654    9653    9663    9664    9654    9657    9660    9661
    9654    9657    9660    9662    9654    9657    9660    9663
    9655    9654    9653    9663    9655    9654    9657    9658
    9655    9654    9657    9659    9655    9654    9657    9660
    9656    9654    9653    9663    9656    9654    9657    9658
    9656    9654    9657    9659    9656    9654    9657    9660
    9657    9654    9653    9663    9657    9660    9663    9664
    9658    9657    9660    9661    9658    9657    9660    9662
    9658    9657    9660    9663    9659    9657    9660    9661
    9659    9657    9660    9662    9659    9657    9660    9663
    9661    9660    9663    9664    9662    9660    9663    9664
    9665    9669    9670    9671    9665    9669    9670    9672
    9665    9669    9670    9673    9665    9669    9679    9676
    9665    9669    9679    9680    9666    9665    9669    9670
    9666    9665    9669    9679    9667    9665    9669    9670
    9667    9665    9669    9679    9668    9665    9669    9670
    9668    9665    9669    9679    9669    9670    9673    9674
    9669    9670    9673    9675    9669    9670    9673    9676
    9669    9679    9676    9673    9669    9679    9676    9677
    9669    9679    9676    9678    9670    9669    9679    9676
    9670    9669    9679    9680    9670    9673    9676    9677
    9670    9673    9676    9678    9670    9673    9676    9679
    9671    9670    9669    9679    9671    9670    9673    9674
    9671    9670    9673    9675    9671    9670    9673    9676
    9672    9670    9669    9679    9672    9670    9673    9674
    9672    9670    9673    9675    9672    9670    9673    9676
    9673    9670    9669    9679    9673    9676    9679    9680
    9674    9673    9676    9677    9674    9673    9676    9678
    9674    9673    9676    9679    9675    9673    9676    9677
    9675    9673    9676    9678    9675    9673    9676    9679
    9677    9676    9679    9680    9678    9676    9679    9680
    9681    9685    9686    9687    9681    9685    9686    9688
    9681    9685    9686    9689    9681    9685    9695    9692
    9681    9685    9695    9696    9682    9681    9685    9686
    9682    9681    9685    9695    9683    9681    9685    9686
    9683    9681    9685    9695    9684    9681    9685    9686
    9684    9681    9685    9695    9685    9686    9689    9690
    9685    9686    9689    9691    9685    9686    9689    9692
    9685    9695    9692    9689    9685    9695    9692    9693
    9685    9695    9692    9694    9686    9685    9695    9692
    9686    9685    9695    9696    9686    9689    9692    9693
    9686    9689    9692    9694    9686    9689    9692    9695
    9687    9686    9685    9695    9687    9686    9689    9690
    9687    9686    9689    9691    9687    9686    9689    9692
    9688    9686    9685    9695    9688    9686    9689    9690
    9688    9686    9689    9691    9688    9686    9689    9692
    9689    9686    9685    9695    9689    9692    9695    9696
    9690    9689    9692    9693    9690    9689    9692    9694
    9690    9689    9692    9695    9691    9689    9692    9693
    9691    9689    9692    9694    9691    9689    9692    9695
    9693    9692    9695    9696    9694    9692    9695    9696
    9697    9701    9702    9703    9697    9701    9702    9704
    9697    9701    9702    9705    9697    9701    9711    9708
    9697    9701    9711    9712    9698    9697    9701    9702
    9698    9697    9701    9711    9699    9697    9701    9702
    9699    9697    9701    9711    9700    9697    9701    9702
    9700    9697    9701    9711    9701    9702    9705    9706
    9701    9702    9705    9707    9701    9702    9705    9708
    9701    9711    9708    9705    9701    9711    9708    9709
    9701    9711    9708    9710    9702    9701    9711    9708
    9702    9701    9711    9712    9702    9705    9708    9709
    9702    9705    9708    9710    9702    9705    9708    9711
    9703    9702    9701    9711    9703    9702    9705    9706
    9703    9702    9705    9707    9703    9702    9705    9708
    9704    9702    9701    9711    9704    9702    9705    9706
    9704    9702    9705    9707    9704    9702    9705    9708
    9705    9702    9701    9711    9705    9708    9711    9712
    9706    9705    9708    9709    9706    9705    9708    9710
    9706    9705    9708    9711    9707    9705    9708    9709
    9707    9705    9708    9710    9707    9705    9708    9711
    9709    9708    9711    9712    9710    9708    9711    9712
    9713    9717    9718    9719    9713    9717    9718    9720
    9713    9717    9718    9721    9713    9717    9727    9724
    9713    9717    9727    9728    9714    9713    9717    9718
    9714    9713    9717    9727    9715    9713    9717    9718
    9715    9713    9717    9727    9716    9713    9717    9718
    9716    9713    9717    9727    9717    9718    9721    9722
    9717    9718    9721    9723    9717    9718    9721    9724
    9717    9727    9724    9721    9717    9727    9724    9725
    9717    9727    9724    9726    9718    9717    9727    9724
    9718    9717    9727    9728    9718    9721    9724    9725
    9718    9721    9724    9726    9718    9721    9724    9727
    9719    9718    9717    9727    9719    9718    9721    9722
    9719    9718    9721    9723    9719    9718    9721    9724
    9720    9718    9717    9727    9720    9718    9721    9722
    9720    9718    9721    9723    9720    9718    9721    9724
    9721    9718    9717    9727    9721    9724    9727    9728
    9722    9721    9724    9725    9722    9721    9724    9726
    9722    9721    9724    9727    9723    9721    9724    9725
    9723    9721    9724    9726    9723    9721    9724    9727
    9725    9724    9727    9728    9726    9724    9727    9728
    9729    9733    9734    9735    9729    9733    9734    9736
    9729    9733    9734    9737    9729    9733    9743    9740
    9729    9733    9743    9744    9730    9729    9733    9734
    9730    9729    9733    9743    9731    9729    9733    9734
    9731    9729    9733    9743    9732    9729    9733    9734
    9732    9729    9733    9743    9733    9734    9737    9738
    9733    9734    9737    9739    9733    9734    9737    9740
    9733    9743    9740    9737    9733    9743    9740    9741
    9733    9743    9740    9742    9734    9733    9743    9740
    9734    9733    9743    9744    9734    9737    9740    9741
    9734    9737    9740    9742    9734    9737    9740    9743
    9735    9734    9733    9743    9735    9734    9737    9738
    9735    9734    9737    9739    9735    9734    9737    9740
    9736    9734    9733    9743    9736    9734    9737    9738
    9736    9734    9737    9739    9736    9734    9737    9740
    9737    9734    9733    9743    9737    9740    9743    9744
    9738    9737    9740    9741    9738    9737    9740    9742
    9738    9737    9740    9743    9739    9737    9740    9741
    9739    9737    9740    9742    9739    9737    9740    9743
    9741    9740    9743    9744    9742    9740    9743    9744
    9745    9749    9750    9751    9745    9749    9750    9752
    9745    9749    9750    9753    9745    9749    9759    9756
    9745    9749    9759    9760    9746    9745    9749    9750
    9746    9745    9749    9759    9747    9745    9749    9750
    9747    9745    9749    9759    9748    9745    9749    9750
    9748    9745    9749    9759    9749    9750    9753    9754
    9749    9750    9753    9755    9749    9750    9753    9756
    9749    9759    9756    9753    9749    9759    9756    9757
    9749    9759    9756    9758    9750    9749    9759    9756
    9750    9749    9759    9760    9750    9753    9756    9757
    9750    9753    9756    9758    9750    9753    9756    9759
    9751    9750    9749    9759    9751    9750    9753    9754
    9751    9750    9753    9755    9751    9750    9753    9756
    9752    9750    9749    9759    9752    9750    9753    9754
    9752    9750    9753    9755    9752    9750    9753    9756
    9753    9750    9749    9759    9753    9756    9759    9760
    9754    9753    9756    9757    9754    9753    9756    9758
    9754    9753    9756    9759    9755    9753    9756    9757
    9755    9753    9756    9758    9755    9753    9756    9759
    9757    9756    9759    9760    9758    9756    9759    9760
    9761    9765    9766    9767    9761    9765    9766    9768
    9761    9765    9766    9769    9761    9765    9775    9772
    9761    9765    9775    9776    9762    9761    9765    9766
    9762    9761    9765    9775    9763    9761    9765    9766
    9763    9761    9765    9775    9764    9761    9765    9766
    9764    9761    9765    9775    9765    9766    9769    9770
    9765    9766    9769    9771    9765    9766    9769    9772
    9765    9775    9772    9769    9765    9775    9772    9773
    9765    9775    9772    9774    9766    9765    9775    9772
    9766    9765    9775    9776    9766    9769    9772    9773
    9766    9769    9772    9774    9766    9769    9772    9775
    9767    9766    9765    9775    9767    9766    9769    9770
    9767    9766    9769    9771    9767    9766    9769    9772
    9768    9766    9765    9775    9768    9766    9769    9770
    9768    9766    9769    9771    9768    9766    9769    9772
    9769    9766    9765    9775    9769    9772    9775    9776
    9770    9769    9772    9773    9770    9769    9772    9774
    9770    9769    9772    9775    9771    9769    9772    9773
    9771    9769    9772    9774    9771    9769    9772    9775
    9773    9772    9775    9776    9774    9772    9775    9776
    9777    9781    9782    9783    9777    9781    9782    9784
    9777    9781    9782    9785    9777    9781    9791    9788
    9777    9781    9791    9792    9778    9777    9781    9782
    9778    9777    9781    9791    9779    9777    9781    9782
    9779    9777    9781    9791    9780    9777    9781    9782
    9780    9777    9781    9791    9781    9782    9785    9786
    9781    9782    9785    9787    9781    9782    9785    9788
    9781    9791    9788    9785    9781    9791    9788    9789
    9781    9791    9788    9790    9782    9781    9791    9788
    9782    9781    9791    9792    9782    9785    9788    9789
    9782    9785    9788    9790    9782    9785    9788    9791
    9783    9782    9781    9791    9783    9782    9785    9786
    9783    9782    9785    9787    9783    9782    9785    9788
    9784    9782    9781    9791    9784    9782    9785    9786
    9784    9782    9785    9787    9784    9782    9785    9788
    9785    9782    9781    9791    9785    9788    9791    9792
    9786    9785    9788    9789    9786    9785    9788    9790
    9786    9785    9788    9791    9787    9785    9788    9789
    9787    9785    9788    9790    9787    9785    9788    9791
    9789    9788    9791    9792    9790    9788    9791    9792
    9793    9797    9798    9799    9793    9797    9798    9800
    9793    9797    9798    9801    9793    9797    9807    9804
    9793    9797    9807    9808    9794    9793    9797    9798
    9794    9793    9797    9807    9795    9793    9797    9798
    9795    9793    9797    9807    9796    9793    9797    9798
    9796    9793    9797    9807    9797    9798    9801    9802
    9797    9798    9801    9803    9797    9798    9801    9804
    9797    9807    9804    9801    9797    9807    9804    9805
    9797    9807    9804    9806    9798    9797    9807    9804
    9798    9797    9807    9808    9798    9801    9804    9805
    9798    9801    9804    9806    9798    9801    9804    9807
    9799    9798    9797    9807    9799    9798    9801    9802
    9799    9798    9801    9803    9799    9798    9801    9804
    9800    9798    9797    9807    9800    9798    9801    9802
    9800    9798    9801    9803    9800    9798    9801    9804
    9801    9798    9797    9807    9801    9804    9807    9808
    9802    9801    9804    9805    9802    9801    9804    9806
    9802    9801    9804    9807    9803    9801    9804    9805
    9803    9801    9804    9806    9803    9801    9804    9807
    9805    9804    9807    9808    9806    9804    9807    9808
    9809    9813    9814    9815    9809    9813    9814    9816
    9809    9813    9814    9817    9809    9813    9823    9820
    9809    9813    9823    9824    9810    9809    9813    9814
    9810    9809    9813    9823    9811    9809    9813    9814
    9811    9809    9813    9823    9812    9809    9813    9814
    9812    9809    9813    9823    9813    9814    9817    9818
    9813    9814    9817    9819    9813    9814    9817    9820
    9813    9823    9820    9817    9813    9823    9820    9821
    9813    9823    9820    9822    9814    9813    9823    9820
    9814    9813    9823    9824    9814    9817    9820    9821
    9814    9817    9820    9822    9814    9817    9820    9823
    9815    9814    9813    9823    9815    9814    9817    9818
    9815    9814    9817    9819    9815    9814    9817    9820
    9816    9814    9813    9823    9816    9814    9817    9818
    9816    9814    9817    9819    9816    9814    9817    9820
    9817    9814    9813    9823    9817    9820    9823    9824
    9818    9817    9820    9821    9818    9817    9820    9822
    9818    9817    9820    9823    9819    9817    9820    9821
    9819    9817    9820    9822    9819    9817    9820    9823
    9821    9820    9823    9824    9822    9820    9823    9824
    9825    9829    9830    9831    9825    9829    9830    9832
    9825    9829    9830    9833    9825    9829    9839    9836
    9825    9829    9839    9840    9826    9825    9829    9830
    9826    9825    9829    9839    9827    9825    9829    9830
    9827    9825    9829    9839    9828    9825    9829    9830
    9828    9825    9829    9839    9829    9830    9833    9834
    9829    9830    9833    9835    9829    9830    9833    9836
    9829    9839    9836    9833    9829    9839    9836    9837
    9829    9839    9836    9838    9830    9829    9839    9836
    9830    9829    9839    9840    9830    9833    9836    9837
    9830    9833    9836    9838    9830    9833    9836    9839
    9831    9830    9829    9839    9831    9830    9833    9834
    9831    9830    9833    9835    9831    9830    9833    9836
    9832    9830    9829    9839    9832    9830    9833    9834
    9832    9830    9833    9835    9832    9830    9833    9836
    9833    9830    9829    9839    9833    9836    9839    9840
    9834    9833    9836    9837    9834    9833    9836    9838
    9834    9833    9836    9839    9835    9833    9836    9837
    9835    9833    9836    9838    9835    9833    9836    9839
    9837    9836    9839    9840    9838    9836    9839    9840
    9841    9845    9846    9847    9841    9845    9846    9848
    9841    9845    9846    9849    9841    9845    9855    9852
    9841    9845    9855    9856    9842    9841    9845    9846
    9842    9841    9845    9855    9843    9841    9845    9846
    9843    9841    9845    9855    9844    9841    9845    9846
    9844    9841    9845    9855    9845    9846    9849    9850
    9845    9846    9849    9851    9845    9846    9849    9852
    9845    9855    9852    9849    9845    9855    9852    9853
    9845    9855    9852    9854    9846    9845    9855    9852
    9846    9845    9855    9856    9846    9849    9852    9853
    9846    9849    9852    9854    9846    9849    9852    9855
    9847    9846    9845    9855    9847    9846    9849    9850
    9847    9846    9849    9851    9847    9846    9849    9852
    9848    9846    9845    9855    9848    9846    9849    9850
    9848    9846    9849    9851    9848    9846    9849    9852
    9849    9846    9845    9855    9849    9852    9855    9856
    9850    9849    9852    9853    9850    9849    9852    9854
    9850    9849    9852    9855    9851    9849    9852    9853
    9851    9849    9852    9854    9851    9849    9852    9855
    9853    9852    9855    9856    9854    9852    9855    9856
    9857    9861    9862    9863    9857    9861    9862    9864
    9857    9861    9862    9865    9857    9861    9871    9868
    9857    9861    9871    9872    9858    9857    9861    9862
    9858    9857    9861    9871    9859    9857    9861    9862
    9859    9857    9861    9871    9860    9857    9861    9862
    9860    9857    9861    9871    9861    9862    9865    9866
    9861    9862    9865    9867    9861    9862    9865    9868
    9861    9871    9868    9865    9861    9871    9868    9869
    9861    9871    9868    9870    9862    9861    9871    9868
    9862    9861    9871    9872    9862    9865    9868    9869
    9862    9865    9868    9870    9862    9865    9868    9871
    9863    9862    9861    9871    9863    9862    9865    9866
    9863    9862    9865    9867    9863    9862    9865    9868
    9864    9862    9861    9871    9864    9862    9865    9866
    9864    9862    9865    9867    9864    9862    9865    9868
    9865    9862    9861    9871    9865    9868    9871    9872
    9866    9865    9868    9869    9866    9865    9868    9870
    9866    9865    9868    9871    9867    9865    9868    9869
    9867    9865    9868    9870    9867    9865    9868    9871
    9869    9868    9871    9872    9870    9868    9871    9872
    9873    9877    9878    9879    9873    9877    9878    9880
    9873    9877    9878    9881    9873    9877    9887    9884
    9873    9877    9887    9888    9874    9873    9877    9878
    9874    9873    9877    9887    9875    9873    9877    9878
    9875    9873    9877    9887    9876    9873    9877    9878
    9876    9873    9877    9887    9877    9878    9881    9882
    9877    9878    9881    9883    9877    9878    9881    9884
    9877    9887    9884    9881    9877    9887    9884    9885
    9877    9887    9884    9886    9878    9877    9887    9884
    9878    9877    9887    9888    9878    9881    9884    9885
    9878    9881    9884    9886    9878    9881    9884    9887
    9879    9878    9877    9887    9879    9878    9881    9882
    9879    9878    9881    9883    9879    9878    9881    9884
    9880    9878    9877    9887    9880    9878    9881    9882
    9880    9878    9881    9883    9880    9878    9881    9884
    9881    9878    9877    9887    9881    9884    9887    9888
    9882    9881    9884    9885    9882    9881    9884    9886
    9882    9881    9884    9887    9883    9881    9884    9885
    9883    9881    9884    9886    9883    9881    9884    9887
    9885    9884    9887    9888    9886    9884    9887    9888
    9889    9893    9894    9895    9889    9893    9894    9896
    9889    9893    9894    9897    9889    9893    9903    9900
    9889    9893    9903    9904    9890    9889    9893    9894
    9890    9889    9893    9903    9891    9889    9893    9894
    9891    9889    9893    9903    9892    9889    9893    9894
    9892    9889    9893    9903    9893    9894    9897    9898
    9893    9894    9897    9899    9893    9894    9897    9900
    9893    9903    9900    9897    9893    9903    9900    9901
    9893    9903    9900    9902    9894    9893    9903    9900
    9894    9893    9903    9904    9894    9897    9900    9901
    9894    9897    9900    9902    9894    9897    9900    9903
    9895    9894    9893    9903    9895    9894    9897    9898
    9895    9894    9897    9899    9895    9894    9897    9900
    9896    9894    9893    9903    9896    9894    9897    9898
    9896    9894    9897    9899    9896    9894    9897    9900
    9897    9894    9893    9903    9897    9900    9903    9904
    9898    9897    9900    9901    9898    9897    9900    9902
    9898    9897    9900    9903    9899    9897    9900    9901
    9899    9897    9900    9902    9899    9897    9900    9903
    9901    9900    9903    9904    9902    9900    9903    9904
    9905    9909    9910    9911    9905    9909    9910    9912
    9905    9909    9910    9913    9905    9909    9919    9916
    9905    9909    9919    9920    9906    9905    9909    9910
    9906    9905    9909    9919    9907    9905    9909    9910
    9907    9905    9909    9919    9908    9905    9909    9910
    9908    9905    9909    9919    9909    9910    9913    9914
    9909    9910    9913    9915    9909    9910    9913    9916
    9909    9919    9916    9913    9909    9919    9916    9917
    9909    9919    9916    9918    9910    9909    9919    9916
    9910    9909    9919    9920    9910    9913    9916    9917
    9910    9913    9916    9918    9910    9913    9916    9919
    9911    9910    9909    9919    9911    9910    9913    9914
    9911    9910    9913    9915    9911    9910    9913    9916
    9912    9910    9909    9919    9912    9910    9913    9914
    9912    9910    9913    9915    9912    9910    9913    9916
    9913    9910    9909    9919    9913    9916    9919    9920
    9914    9913    9916    9917    9914    9913    9916    9918
    9914    9913    9916    9919    9915    9913    9916    9917
    9915    9913    9916    9918    9915    9913    9916    9919
    9917    9916    9919    9920    9918    9916    9919    9920
    9921    9925    9926    9927    9921    9925    9926    9928
    9921    9925    9926    9929    9921    9925    9935    9932
    9921    9925    9935    9936    9922    9921    9925    9926
    9922    9921    9925    9935    9923    9921    9925    9926
    9923    9921    9925    9935    9924    9921    9925    9926
    9924    9921    9925    9935    9925    9926    9929    9930
    9925    9926    9929    9931    9925    9926    9929    9932
    9925    9935    9932    9929    9925    9935    9932    9933
    9925    9935    9932    9934    9926    9925    9935    9932
    9926    9925    9935    9936    9926    9929    9932    9933
    9926    9929    9932    9934    9926    9929    9932    9935
    9927    9926    9925    9935    9927    9926    9929    9930
    9927    9926    9929    9931    9927    9926    9929    9932
    9928    9926    9925    9935    9928    9926    9929    9930
    9928    9926    9929    9931    9928    9926    9929    9932
    9929    9926    9925    9935    9929    9932    9935    9936
    9930    9929    9932    9933    9930    9929    9932    9934
    9930    9929    9932    9935    9931    9929    9932    9933
    9931    9929    9932    9934    9931    9929    9932    9935
    9933    9932    9935    9936    9934    9932    9935    9936
    9937    9941    9942    9943    9937    9941    9942    9944
    9937    9941    9942    9945    9937    9941    9951    9948
    9937    9941    9951    9952    9938    9937    9941    9942
    9938    9937    9941    9951    9939    9937    9941    9942
    9939    9937    9941    9951    9940    9937    9941    9942
    9940    9937    9941    9951    9941    9942    9945    9946
    9941    9942    9945    9947    9941    9942    9945    9948
    9941    9951    9948    9945    9941    9951    9948    9949
    9941    9951    9948    9950    9942    9941    9951    9948
    9942    9941    9951    9952    9942    9945    9948    9949
    9942    9945    9948    9950    9942    9945    9948    9951
    9943    9942    9941    9951    9943    9942    9945    9946
    9943    9942    9945    9947    9943    9942    9945    9948
    9944    9942    9941    9951    9944    9942    9945    9946
    9944    9942    9945    9947    9944    9942    9945    9948
    9945    9942    9941    9951    9945    9948    9951    9952
    9946    9945    9948    9949    9946    9945    9948    9950
    9946    9945    9948    9951    9947    9945    9948    9949
    9947    9945    9948    9950    9947    9945    9948    9951
    9949    9948    9951    9952    9950    9948    9951    9952
    9953    9957    9958    9959    9953    9957    9958    9960
    9953    9957    9958    9961    9953    9957    9967    9964
    9953    9957    9967    9968    9954    9953    9957    9958
    9954    9953    9957    9967    9955    9953    9957    9958
    9955    9953    9957    9967    9956    9953    9957    9958
    9956    9953    9957    9967    9957    9958    9961    9962
    9957    9958    9961    9963    9957    9958    9961    9964
    9957    9967    9964    9961    9957    9967    9964    9965
    9957    9967    9964    9966    9958    9957    9967    9964
    9958    9957    9967    9968    9958    9961    9964    9965
    9958    9961    9964    9966    9958    9961    9964    9967
    9959    9958    9957    9967    9959    9958    9961    9962
    9959    9958    9961    9963    9959    9958    9961    9964
    9960    9958    9957    9967    9960    9958    9961    9962
    9960    9958    9961    9963    9960    9958    9961    9964
    9961    9958    9957    9967    9961    9964    9967    9968
    9962    9961    9964    9965    9962    9961    9964    9966
    9962    9961    9964    9967    9963    9961    9964    9965
    9963    9961    9964    9966    9963    9961    9964    9967
    9965    9964    9967    9968    9966    9964    9967    9968
    9969    9973    9974    9975    9969    9973    9974    9976
    9969    9973    9974    9977    9969    9973    9983    9980
    9969    9973    9983    9984    9970    9969    9973    9974
    9970    9969    9973    9983    9971    9969    9973    9974
    9971    9969    9973    9983    9972    9969    9973    9974
    9972    9969    9973    9983    9973    9974    9977    9978
    9973    9974    9977    9979    9973    9974    9977    9980
    9973    9983    9980    9977    9973    9983    9980    9981
    9973    9983    9980    9982    9974    9973    9983    9980
    9974    9973    9983    9984    9974    9977    9980    9981
    9974    9977    9980    9982    9974    9977    9980    9983
    9975    9974    9973    9983    9975    9974    9977    9978
    9975    9974    9977    9979    9975    9974    9977    9980
    9976    9974    9973    9983    9976    9974    9977    9978
    9976    9974    9977    9979    9976    9974    9977    9980
    9977    9974    9973    9983    9977    9980    9983    9984
    9978    9977    9980    9981    9978    9977    9980    9982
    9978    9977    9980    9983    9979    9977    9980    9981
    9979    9977    9980    9982    9979    9977    9980    9983
    9981    9980    9983    9984    9982    9980    9983    9984
    9985    9989    9990    9991    9985    9989    9990    9992
    9985    9989    9990    9993    9985    9989    9999    9996
    9985    9989    9999   10000    9986    9985    9989    9990
    9986    9985    9989    9999    9987    9985    9989    9990
    9987    9985    9989    9999    9988    9985    9989    9990
    9988    9985    9989    9999    9989    9990    9993    9994
    9989    9990    9993    9995    9989    9990    9993    9996
    9989    9999    9996    9993    9989    9999    9996    9997
    9989    9999    9996    9998    9990    9989    9999    9996
    9990    9989    9999   10000    9990    9993    9996    9997
    9990    9993    9996    9998    9990    9993    9996    9999
    9991    9990    9989    9999    9991    9990    9993    9994
    9991    9990    9993    9995    9991    9990    9993    9996
    9992    9990    9989    9999    9992    9990    9993    9994
    9992    9990    9993    9995    9992    9990    9993    9996
    9993    9990    9989    9999    9993    9996    9999   10000
    9994    9993    9996    9997    9994    9993    9996    9998
    9994    9993    9996    9999    9995    9993    9996    9997
    9995    9993    9996    9998    9995    9993    9996    9999
    9997    9996    9999   10000    9998    9996    9999   10000
   10001   10005   10006   10007   10001   10005   10006   10008
   10001   10005   10006   10009   10001   10005   10015   10012
   10001   10005   10015   10016   10002   10001   10005   10006
   10002   10001   10005   10015   10003   10001   10005   10006
   10003   10001   10005   10015   10004   10001   10005   10006
   10004   10001   10005   10015   10005   10006   10009   10010
   10005   10006   10009   10011   10005   10006   10009   10012
   10005   10015   10012   10009   10005   10015   10012   10013
   10005   10015   10012   10014   10006   10005   10015   10012
   10006   10005   10015   10016   10006   10009   10012   10013
   10006   10009   10012   10014   10006   10009   10012   10015
   10007   10006   10005   10015   10007   10006   10009   10010
   10007   10006   10009   10011   10007   10006   10009   10012
   10008   10006   10005   10015   10008   10006   10009   10010
   10008   10006   10009   10011   10008   10006   10009   10012
   10009   10006   10005   10015   10009   10012   10015   10016
   10010   10009   10012   10013   10010   10009   10012   10014
   10010   10009   10012   10015   10011   10009   10012   10013
   10011   10009   10012   10014   10011   10009   10012   10015
   10013   10012   10015   10016   10014   10012   10015   10016
   10017   10021   10022   10023   10017   10021   10022   10024
   10017   10021   10022   10025   10017   10021   10031   10028
   10017   10021   10031   10032   10018   10017   10021   10022
   10018   10017   10021   10031   10019   10017   10021   10022
   10019   10017   10021   10031   10020   10017   10021   10022
   10020   10017   10021   10031   10021   10022   10025   10026
   10021   10022   10025   10027   10021   10022   10025   10028
   10021   10031   10028   10025   10021   10031   10028   10029
   10021   10031   10028   10030   10022   10021   10031   10028
   10022   10021   10031   10032   10022   10025   10028   10029
   10022   10025   10028   10030   10022   10025   10028   10031
   10023   10022   10021   10031   10023   10022   10025   10026
   10023   10022   10025   10027   10023   10022   10025   10028
   10024   10022   10021   10031   10024   10022   10025   10026
   10024   10022   10025   10027   10024   10022   10025   10028
   10025   10022   10021   10031   10025   10028   10031   10032
   10026   10025   10028   10029   10026   10025   10028   10030
   10026   10025   10028   10031   10027   10025   10028   10029
   10027   10025   10028   10030   10027   10025   10028   10031
   10029   10028   10031   10032   10030   10028   10031   10032
   10033   10037   10038   10039   10033   10037   10038   10040
   10033   10037   10038   10041   10033   10037   10047   10044
   10033   10037   10047   10048   10034   10033   10037   10038
   10034   10033   10037   10047   10035   10033   10037   10038
   10035   10033   10037   10047   10036   10033   10037   10038
   10036   10033   10037   10047   10037   10038   10041   10042
   10037   10038   10041   10043   10037   10038   10041   10044
   10037   10047   10044   10041   10037   10047   10044   10045
   10037   10047   10044   10046   10038   10037   10047   10044
   10038   10037   10047   10048   10038   10041   10044   10045
   10038   10041   10044   10046   10038   10041   10044   10047
   10039   10038   10037   10047   10039   10038   10041   10042
   10039   10038   10041   10043   10039   10038   10041   10044
   10040   10038   10037   10047   10040   10038   10041   10042
   10040   10038   10041   10043   10040   10038   10041   10044
   10041   10038   10037   10047   10041   10044   10047   10048
   10042   10041   10044   10045   10042   10041   10044   10046
   10042   10041   10044   10047   10043   10041   10044   10045
   10043   10041   10044   10046   10043   10041   10044   10047
   10045   10044   10047   10048   10046   10044   10047   10048
   10049   10053   10054   10055   10049   10053   10054   10056
   10049   10053   10054   10057   10049   10053   10063   10060
   10049   10053   10063   10064   10050   10049   10053   10054
   10050   10049   10053   10063   10051   10049   10053   10054
   10051   10049   10053   10063   10052   10049   10053   10054
   10052   10049   10053   10063   10053   10054   10057   10058
   10053   10054   10057   10059   10053   10054   10057   10060
   10053   10063   10060   10057   10053   10063   10060   10061
   10053   10063   10060   10062   10054   10053   10063   10060
   10054   10053   10063   10064   10054   10057   10060   10061
   10054   10057   10060   10062   10054   10057   10060   10063
   10055   10054   10053   10063   10055   10054   10057   10058
   10055   10054   10057   10059   10055   10054   10057   10060
   10056   10054   10053   10063   10056   10054   10057   10058
   10056   10054   10057   10059   10056   10054   10057   10060
   10057   10054   10053   10063   10057   10060   10063   10064
   10058   10057   10060   10061   10058   10057   10060   10062
   10058   10057   10060   10063   10059   10057   10060   10061
   10059   10057   10060   10062   10059   10057   10060   10063
   10061   10060   10063   10064   10062   10060   10063   10064
   10065   10069   10070   10071   10065   10069   10070   10072
   10065   10069   10070   10073   10065   10069   10079   10076
   10065   10069   10079   10080   10066   10065   10069   10070
   10066   10065   10069   10079   10067   10065   10069   10070
   10067   10065   10069   10079   10068   10065   10069   10070
   10068   10065   10069   10079   10069   10070   10073   10074
   10069   10070   10073   10075   10069   10070   10073   10076
   10069   10079   10076   10073   10069   10079   10076   10077
   10069   10079   10076   10078   10070   10069   10079   10076
   10070   10069   10079   10080   10070   10073   10076   10077
   10070   10073   10076   10078   10070   10073   10076   10079
   10071   10070   10069   10079   10071   10070   10073   10074
   10071   10070   10073   10075   10071   10070   10073   10076
   10072   10070   10069   10079   10072   10070   10073   10074
   10072   10070   10073   10075   10072   10070   10073   10076
   10073   10070   10069   10079   10073   10076   10079   10080
   10074   10073   10076   10077   10074   10073   10076   10078
   10074   10073   10076   10079   10075   10073   10076   10077
   10075   10073   10076   10078   10075   10073   10076   10079
   10077   10076   10079   10080   10078   10076   10079   10080
   10081   10085   10086   10087   10081   10085   10086   10088
   10081   10085   10086   10089   10081   10085   10095   10092
   10081   10085   10095   10096   10082   10081   10085   10086
   10082   10081   10085   10095   10083   10081   10085   10086
   10083   10081   10085   10095   10084   10081   10085   10086
   10084   10081   10085   10095   10085   10086   10089   10090
   10085   10086   10089   10091   10085   10086   10089   10092
   10085   10095   10092   10089   10085   10095   10092   10093
   10085   10095   10092   10094   10086   10085   10095   10092
   10086   10085   10095   10096   10086   10089   10092   10093
   10086   10089   10092   10094   10086   10089   10092   10095
   10087   10086   10085   10095   10087   10086   10089   10090
   10087   10086   10089   10091   10087   10086   10089   10092
   10088   10086   10085   10095   10088   10086   10089   10090
   10088   10086   10089   10091   10088   10086   10089   10092
   10089   10086   10085   10095   10089   10092   10095   10096
   10090   10089   10092   10093   10090   10089   10092   10094
   10090   10089   10092   10095   10091   10089   10092   10093
   10091   10089   10092   10094   10091   10089   10092   10095
   10093   10092   10095   10096   10094   10092   10095   10096
   10097   10101   10102   10103   10097   10101   10102   10104
   10097   10101   10102   10105   10097   10101   10111   10108
   10097   10101   10111   10112   10098   10097   10101   10102
   10098   10097   10101   10111   10099   10097   10101   10102
   10099   10097   10101   10111   10100   10097   10101   10102
   10100   10097   10101   10111   10101   10102   10105   10106
   10101   10102   10105   10107   10101   10102   10105   10108
   10101   10111   10108   10105   10101   10111   10108   10109
   10101   10111   10108   10110   10102   10101   10111   10108
   10102   10101   10111   10112   10102   10105   10108   10109
   10102   10105   10108   10110   10102   10105   10108   10111
   10103   10102   10101   10111   10103   10102   10105   10106
   10103   10102   10105   10107   10103   10102   10105   10108
   10104   10102   10101   10111   10104   10102   10105   10106
   10104   10102   10105   10107   10104   10102   10105   10108
   10105   10102   10101   10111   10105   10108   10111   10112
   10106   10105   10108   10109   10106   10105   10108   10110
   10106   10105   10108   10111   10107   10105   10108   10109
   10107   10105   10108   10110   10107   10105   10108   10111
   10109   10108   10111   10112   10110   10108   10111   10112
   10113   10117   10118   10119   10113   10117   10118   10120
   10113   10117   10118   10121   10113   10117   10127   10124
   10113   10117   10127   10128   10114   10113   10117   10118
   10114   10113   10117   10127   10115   10113   10117   10118
   10115   10113   10117   10127   10116   10113   10117   10118
   10116   10113   10117   10127   10117   10118   10121   10122
   10117   10118   10121   10123   10117   10118   10121   10124
   10117   10127   10124   10121   10117   10127   10124   10125
   10117   10127   10124   10126   10118   10117   10127   10124
   10118   10117   10127   10128   10118   10121   10124   10125
   10118   10121   10124   10126   10118   10121   10124   10127
   10119   10118   10117   10127   10119   10118   10121   10122
   10119   10118   10121   10123   10119   10118   10121   10124
   10120   10118   10117   10127   10120   10118   10121   10122
   10120   10118   10121   10123   10120   10118   10121   10124
   10121   10118   10117   10127   10121   10124   10127   10128
   10122   10121   10124   10125   10122   10121   10124   10126
   10122   10121   10124   10127   10123   10121   10124   10125
   10123   10121   10124   10126   10123   10121   10124   10127
   10125   10124   10127   10128   10126   10124   10127   10128
   10129   10133   10134   10135   10129   10133   10134   10136
   10129   10133   10134   10137   10129   10133   10143   10140
   10129   10133   10143   10144   10130   10129   10133   10134
   10130   10129   10133   10143   10131   10129   10133   10134
   10131   10129   10133   10143   10132   10129   10133   10134
   10132   10129   10133   10143   10133   10134   10137   10138
   10133   10134   10137   10139   10133   10134   10137   10140
   10133   10143   10140   10137   10133   10143   10140   10141
   10133   10143   10140   10142   10134   10133   10143   10140
   10134   10133   10143   10144   10134   10137   10140   10141
   10134   10137   10140   10142   10134   10137   10140   10143
   10135   10134   10133   10143   10135   10134   10137   10138
   10135   10134   10137   10139   10135   10134   10137   10140
   10136   10134   10133   10143   10136   10134   10137   10138
   10136   10134   10137   10139   10136   10134   10137   10140
   10137   10134   10133   10143   10137   10140   10143   10144
   10138   10137   10140   10141   10138   10137   10140   10142
   10138   10137   10140   10143   10139   10137   10140   10141
   10139   10137   10140   10142   10139   10137   10140   10143
   10141   10140   10143   10144   10142   10140   10143   10144
   10145   10149   10150   10151   10145   10149   10150   10152
   10145   10149   10150   10153   10145   10149   10159   10156
   10145   10149   10159   10160   10146   10145   10149   10150
   10146   10145   10149   10159   10147   10145   10149   10150
   10147   10145   10149   10159   10148   10145   10149   10150
   10148   10145   10149   10159   10149   10150   10153   10154
   10149   10150   10153   10155   10149   10150   10153   10156
   10149   10159   10156   10153   10149   10159   10156   10157
   10149   10159   10156   10158   10150   10149   10159   10156
   10150   10149   10159   10160   10150   10153   10156   10157
   10150   10153   10156   10158   10150   10153   10156   10159
   10151   10150   10149   10159   10151   10150   10153   10154
   10151   10150   10153   10155   10151   10150   10153   10156
   10152   10150   10149   10159   10152   10150   10153   10154
   10152   10150   10153   10155   10152   10150   10153   10156
   10153   10150   10149   10159   10153   10156   10159   10160
   10154   10153   10156   10157   10154   10153   10156   10158
   10154   10153   10156   10159   10155   10153   10156   10157
   10155   10153   10156   10158   10155   10153   10156   10159
   10157   10156   10159   10160   10158   10156   10159   10160
   10161   10165   10166   10167   10161   10165   10166   10168
   10161   10165   10166   10169   10161   10165   10175   10172
   10161   10165   10175   10176   10162   10161   10165   10166
   10162   10161   10165   10175   10163   10161   10165   10166
   10163   10161   10165   10175   10164   10161   10165   10166
   10164   10161   10165   10175   10165   10166   10169   10170
   10165   10166   10169   10171   10165   10166   10169   10172
   10165   10175   10172   10169   10165   10175   10172   10173
   10165   10175   10172   10174   10166   10165   10175   10172
   10166   10165   10175   10176   10166   10169   10172   10173
   10166   10169   10172   10174   10166   10169   10172   10175
   10167   10166   10165   10175   10167   10166   10169   10170
   10167   10166   10169   10171   10167   10166   10169   10172
   10168   10166   10165   10175   10168   10166   10169   10170
   10168   10166   10169   10171   10168   10166   10169   10172
   10169   10166   10165   10175   10169   10172   10175   10176
   10170   10169   10172   10173   10170   10169   10172   10174
   10170   10169   10172   10175   10171   10169   10172   10173
   10171   10169   10172   10174   10171   10169   10172   10175
   10173   10172   10175   10176   10174   10172   10175   10176
   10177   10181   10182   10183   10177   10181   10182   10184
   10177   10181   10182   10185   10177   10181   10191   10188
   10177   10181   10191   10192   10178   10177   10181   10182
   10178   10177   10181   10191   10179   10177   10181   10182
   10179   10177   10181   10191   10180   10177   10181   10182
   10180   10177   10181   10191   10181   10182   10185   10186
   10181   10182   10185   10187   10181   10182   10185   10188
   10181   10191   10188   10185   10181   10191   10188   10189
   10181   10191   10188   10190   10182   10181   10191   10188
   10182   10181   10191   10192   10182   10185   10188   10189
   10182   10185   10188   10190   10182   10185   10188   10191
   10183   10182   10181   10191   10183   10182   10185   10186
   10183   10182   10185   10187   10183   10182   10185   10188
   10184   10182   10181   10191   10184   10182   10185   10186
   10184   10182   10185   10187   10184   10182   10185   10188
   10185   10182   10181   10191   10185   10188   10191   10192
   10186   10185   10188   10189   10186   10185   10188   10190
   10186   10185   10188   10191   10187   10185   10188   10189
   10187   10185   10188   10190   10187   10185   10188   10191
   10189   10188   10191   10192   10190   10188   10191   10192
   10193   10197   10198   10199   10193   10197   10198   10200
   10193   10197   10198   10201   10193   10197   10207   10204
   10193   10197   10207   10208   10194   10193   10197   10198
   10194   10193   10197   10207   10195   10193   10197   10198
   10195   10193   10197   10207   10196   10193   10197   10198
   10196   10193   10197   10207   10197   10198   10201   10202
   10197   10198   10201   10203   10197   10198   10201   10204
   10197   10207   10204   10201   10197   10207   10204   10205
   10197   10207   10204   10206   10198   10197   10207   10204
   10198   10197   10207   10208   10198   10201   10204   10205
   10198   10201   10204   10206   10198   10201   10204   10207
   10199   10198   10197   10207   10199   10198   10201   10202
   10199   10198   10201   10203   10199   10198   10201   10204
   10200   10198   10197   10207   10200   10198   10201   10202
   10200   10198   10201   10203   10200   10198   10201   10204
   10201   10198   10197   10207   10201   10204   10207   10208
   10202   10201   10204   10205   10202   10201   10204   10206
   10202   10201   10204   10207   10203   10201   10204   10205
   10203   10201   10204   10206   10203   10201   10204   10207
   10205   10204   10207   10208   10206   10204   10207   10208
   10209   10213   10214   10215   10209   10213   10214   10216
   10209   10213   10214   10217   10209   10213   10223   10220
   10209   10213   10223   10224   10210   10209   10213   10214
   10210   10209   10213   10223   10211   10209   10213   10214
   10211   10209   10213   10223   10212   10209   10213   10214
   10212   10209   10213   10223   10213   10214   10217   10218
   10213   10214   10217   10219   10213   10214   10217   10220
   10213   10223   10220   10217   10213   10223   10220   10221
   10213   10223   10220   10222   10214   10213   10223   10220
   10214   10213   10223   10224   10214   10217   10220   10221
   10214   10217   10220   10222   10214   10217   10220   10223
   10215   10214   10213   10223   10215   10214   10217   10218
   10215   10214   10217   10219   10215   10214   10217   10220
   10216   10214   10213   10223   10216   10214   10217   10218
   10216   10214   10217   10219   10216   10214   10217   10220
   10217   10214   10213   10223   10217   10220   10223   10224
   10218   10217   10220   10221   10218   10217   10220   10222
   10218   10217   10220   10223   10219   10217   10220   10221
   10219   10217   10220   10222   10219   10217   10220   10223
   10221   10220   10223   10224   10222   10220   10223   10224
   10225   10229   10230   10231   10225   10229   10230   10232
   10225   10229   10230   10233   10225   10229   10239   10236
   10225   10229   10239   10240   10226   10225   10229   10230
   10226   10225   10229   10239   10227   10225   10229   10230
   10227   10225   10229   10239   10228   10225   10229   10230
   10228   10225   10229   10239   10229   10230   10233   10234
   10229   10230   10233   10235   10229   10230   10233   10236
   10229   10239   10236   10233   10229   10239   10236   10237
   10229   10239   10236   10238   10230   10229   10239   10236
   10230   10229   10239   10240   10230   10233   10236   10237
   10230   10233   10236   10238   10230   10233   10236   10239
   10231   10230   10229   10239   10231   10230   10233   10234
   10231   10230   10233   10235   10231   10230   10233   10236
   10232   10230   10229   10239   10232   10230   10233   10234
   10232   10230   10233   10235   10232   10230   10233   10236
   10233   10230   10229   10239   10233   10236   10239   10240
   10234   10233   10236   10237   10234   10233   10236   10238
   10234   10233   10236   10239   10235   10233   10236   10237
   10235   10233   10236   10238   10235   10233   10236   10239
   10237   10236   10239   10240   10238   10236   10239   10240
   10241   10245   10246   10247   10241   10245   10246   10248
   10241   10245   10246   10249   10241   10245   10255   10252
   10241   10245   10255   10256   10242   10241   10245   10246
   10242   10241   10245   10255   10243   10241   10245   10246
   10243   10241   10245   10255   10244   10241   10245   10246
   10244   10241   10245   10255   10245   10246   10249   10250
   10245   10246   10249   10251   10245   10246   10249   10252
   10245   10255   10252   10249   10245   10255   10252   10253
   10245   10255   10252   10254   10246   10245   10255   10252
   10246   10245   10255   10256   10246   10249   10252   10253
   10246   10249   10252   10254   10246   10249   10252   10255
   10247   10246   10245   10255   10247   10246   10249   10250
   10247   10246   10249   10251   10247   10246   10249   10252
   10248   10246   10245   10255   10248   10246   10249   10250
   10248   10246   10249   10251   10248   10246   10249   10252
   10249   10246   10245   10255   10249   10252   10255   10256
   10250   10249   10252   10253   10250   10249   10252   10254
   10250   10249   10252   10255   10251   10249   10252   10253
   10251   10249   10252   10254   10251   10249   10252   10255
   10253   10252   10255   10256   10254   10252   10255   10256
   10257   10261   10262   10263   10257   10261   10262   10264
   10257   10261   10262   10265   10257   10261   10271   10268
   10257   10261   10271   10272   10258   10257   10261   10262
   10258   10257   10261   10271   10259   10257   10261   10262
   10259   10257   10261   10271   10260   10257   10261   10262
   10260   10257   10261   10271   10261   10262   10265   10266
   10261   10262   10265   10267   10261   10262   10265   10268
   10261   10271   10268   10265   10261   10271   10268   10269
   10261   10271   10268   10270   10262   10261   10271   10268
   10262   10261   10271   10272   10262   10265   10268   10269
   10262   10265   10268   10270   10262   10265   10268   10271
   10263   10262   10261   10271   10263   10262   10265   10266
   10263   10262   10265   10267   10263   10262   10265   10268
   10264   10262   10261   10271   10264   10262   10265   10266
   10264   10262   10265   10267   10264   10262   10265   10268
   10265   10262   10261   10271   10265   10268   10271   10272
   10266   10265   10268   10269   10266   10265   10268   10270
   10266   10265   10268   10271   10267   10265   10268   10269
   10267   10265   10268   10270   10267   10265   10268   10271
   10269   10268   10271   10272   10270   10268   10271   10272
   10273   10277   10278   10279   10273   10277   10278   10280
   10273   10277   10278   10281   10273   10277   10287   10284
   10273   10277   10287   10288   10274   10273   10277   10278
   10274   10273   10277   10287   10275   10273   10277   10278
   10275   10273   10277   10287   10276   10273   10277   10278
   10276   10273   10277   10287   10277   10278   10281   10282
   10277   10278   10281   10283   10277   10278   10281   10284
   10277   10287   10284   10281   10277   10287   10284   10285
   10277   10287   10284   10286   10278   10277   10287   10284
   10278   10277   10287   10288   10278   10281   10284   10285
   10278   10281   10284   10286   10278   10281   10284   10287
   10279   10278   10277   10287   10279   10278   10281   10282
   10279   10278   10281   10283   10279   10278   10281   10284
   10280   10278   10277   10287   10280   10278   10281   10282
   10280   10278   10281   10283   10280   10278   10281   10284
   10281   10278   10277   10287   10281   10284   10287   10288
   10282   10281   10284   10285   10282   10281   10284   10286
   10282   10281   10284   10287   10283   10281   10284   10285
   10283   10281   10284   10286   10283   10281   10284   10287
   10285   10284   10287   10288   10286   10284   10287   10288
   10289   10293   10294   10295   10289   10293   10294   10296
   10289   10293   10294   10297   10289   10293   10303   10300
   10289   10293   10303   10304   10290   10289   10293   10294
   10290   10289   10293   10303   10291   10289   10293   10294
   10291   10289   10293   10303   10292   10289   10293   10294
   10292   10289   10293   10303   10293   10294   10297   10298
   10293   10294   10297   10299   10293   10294   10297   10300
   10293   10303   10300   10297   10293   10303   10300   10301
   10293   10303   10300   10302   10294   10293   10303   10300
   10294   10293   10303   10304   10294   10297   10300   10301
   10294   10297   10300   10302   10294   10297   10300   10303
   10295   10294   10293   10303   10295   10294   10297   10298
   10295   10294   10297   10299   10295   10294   10297   10300
   10296   10294   10293   10303   10296   10294   10297   10298
   10296   10294   10297   10299   10296   10294   10297   10300
   10297   10294   10293   10303   10297   10300   10303   10304
   10298   10297   10300   10301   10298   10297   10300   10302
   10298   10297   10300   10303   10299   10297   10300   10301
   10299   10297   10300   10302   10299   10297   10300   10303
   10301   10300   10303   10304   10302   10300   10303   10304
   10305   10309   10310   10311   10305   10309   10310   10312
   10305   10309   10310   10313   10305   10309   10319   10316
   10305   10309   10319   10320   10306   10305   10309   10310
   10306   10305   10309   10319   10307   10305   10309   10310
   10307   10305   10309   10319   10308   10305   10309   10310
   10308   10305   10309   10319   10309   10310   10313   10314
   10309   10310   10313   10315   10309   10310   10313   10316
   10309   10319   10316   10313   10309   10319   10316   10317
   10309   10319   10316   10318   10310   10309   10319   10316
   10310   10309   10319   10320   10310   10313   10316   10317
   10310   10313   10316   10318   10310   10313   10316   10319
   10311   10310   10309   10319   10311   10310   10313   10314
   10311   10310   10313   10315   10311   10310   10313   10316
   10312   10310   10309   10319   10312   10310   10313   10314
   10312   10310   10313   10315   10312   10310   10313   10316
   10313   10310   10309   10319   10313   10316   10319   10320
   10314   10313   10316   10317   10314   10313   10316   10318
   10314   10313   10316   10319   10315   10313   10316   10317
   10315   10313   10316   10318   10315   10313   10316   10319
   10317   10316   10319   10320   10318   10316   10319   10320
   10321   10325   10326   10327   10321   10325   10326   10328
   10321   10325   10326   10329   10321   10325   10335   10332
   10321   10325   10335   10336   10322   10321   10325   10326
   10322   10321   10325   10335   10323   10321   10325   10326
   10323   10321   10325   10335   10324   10321   10325   10326
   10324   10321   10325   10335   10325   10326   10329   10330
   10325   10326   10329   10331   10325   10326   10329   10332
   10325   10335   10332   10329   10325   10335   10332   10333
   10325   10335   10332   10334   10326   10325   10335   10332
   10326   10325   10335   10336   10326   10329   10332   10333
   10326   10329   10332   10334   10326   10329   10332   10335
   10327   10326   10325   10335   10327   10326   10329   10330
   10327   10326   10329   10331   10327   10326   10329   10332
   10328   10326   10325   10335   10328   10326   10329   10330
   10328   10326   10329   10331   10328   10326   10329   10332
   10329   10326   10325   10335   10329   10332   10335   10336
   10330   10329   10332   10333   10330   10329   10332   10334
   10330   10329   10332   10335   10331   10329   10332   10333
   10331   10329   10332   10334   10331   10329   10332   10335
   10333   10332   10335   10336   10334   10332   10335   10336
   10337   10341   10342   10343   10337   10341   10342   10344
   10337   10341   10342   10345   10337   10341   10351   10348
   10337   10341   10351   10352   10338   10337   10341   10342
   10338   10337   10341   10351   10339   10337   10341   10342
   10339   10337   10341   10351   10340   10337   10341   10342
   10340   10337   10341   10351   10341   10342   10345   10346
   10341   10342   10345   10347   10341   10342   10345   10348
   10341   10351   10348   10345   10341   10351   10348   10349
   10341   10351   10348   10350   10342   10341   10351   10348
   10342   10341   10351   10352   10342   10345   10348   10349
   10342   10345   10348   10350   10342   10345   10348   10351
   10343   10342   10341   10351   10343   10342   10345   10346
   10343   10342   10345   10347   10343   10342   10345   10348
   10344   10342   10341   10351   10344   10342   10345   10346
   10344   10342   10345   10347   10344   10342   10345   10348
   10345   10342   10341   10351   10345   10348   10351   10352
   10346   10345   10348   10349   10346   10345   10348   10350
   10346   10345   10348   10351   10347   10345   10348   10349
   10347   10345   10348   10350   10347   10345   10348   10351
   10349   10348   10351   10352   10350   10348   10351   10352
   10353   10357   10358   10359   10353   10357   10358   10360
   10353   10357   10358   10361   10353   10357   10367   10364
   10353   10357   10367   10368   10354   10353   10357   10358
   10354   10353   10357   10367   10355   10353   10357   10358
   10355   10353   10357   10367   10356   10353   10357   10358
   10356   10353   10357   10367   10357   10358   10361   10362
   10357   10358   10361   10363   10357   10358   10361   10364
   10357   10367   10364   10361   10357   10367   10364   10365
   10357   10367   10364   10366   10358   10357   10367   10364
   10358   10357   10367   10368   10358   10361   10364   10365
   10358   10361   10364   10366   10358   10361   10364   10367
   10359   10358   10357   10367   10359   10358   10361   10362
   10359   10358   10361   10363   10359   10358   10361   10364
   10360   10358   10357   10367   10360   10358   10361   10362
   10360   10358   10361   10363   10360   10358   10361   10364
   10361   10358   10357   10367   10361   10364   10367   10368
   10362   10361   10364   10365   10362   10361   10364   10366
   10362   10361   10364   10367   10363   10361   10364   10365
   10363   10361   10364   10366   10363   10361   10364   10367
   10365   10364   10367   10368   10366   10364   10367   10368
   10369   10373   10374   10375   10369   10373   10374   10376
   10369   10373   10374   10377   10369   10373   10383   10380
   10369   10373   10383   10384   10370   10369   10373   10374
   10370   10369   10373   10383   10371   10369   10373   10374
   10371   10369   10373   10383   10372   10369   10373   10374
   10372   10369   10373   10383   10373   10374   10377   10378
   10373   10374   10377   10379   10373   10374   10377   10380
   10373   10383   10380   10377   10373   10383   10380   10381
   10373   10383   10380   10382   10374   10373   10383   10380
   10374   10373   10383   10384   10374   10377   10380   10381
   10374   10377   10380   10382   10374   10377   10380   10383
   10375   10374   10373   10383   10375   10374   10377   10378
   10375   10374   10377   10379   10375   10374   10377   10380
   10376   10374   10373   10383   10376   10374   10377   10378
   10376   10374   10377   10379   10376   10374   10377   10380
   10377   10374   10373   10383   10377   10380   10383   10384
   10378   10377   10380   10381   10378   10377   10380   10382
   10378   10377   10380   10383   10379   10377   10380   10381
   10379   10377   10380   10382   10379   10377   10380   10383
   10381   10380   10383   10384   10382   10380   10383   10384
   10385   10389   10390   10391   10385   10389   10390   10392
   10385   10389   10390   10393   10385   10389   10399   10396
   10385   10389   10399   10400   10386   10385   10389   10390
   10386   10385   10389   10399   10387   10385   10389   10390
   10387   10385   10389   10399   10388   10385   10389   10390
   10388   10385   10389   10399   10389   10390   10393   10394
   10389   10390   10393   10395   10389   10390   10393   10396
   10389   10399   10396   10393   10389   10399   10396   10397
   10389   10399   10396   10398   10390   10389   10399   10396
   10390   10389   10399   10400   10390   10393   10396   10397
   10390   10393   10396   10398   10390   10393   10396   10399
   10391   10390   10389   10399   10391   10390   10393   10394
   10391   10390   10393   10395   10391   10390   10393   10396
   10392   10390   10389   10399   10392   10390   10393   10394
   10392   10390   10393   10395   10392   10390   10393   10396
   10393   10390   10389   10399   10393   10396   10399   10400
   10394   10393   10396   10397   10394   10393   10396   10398
   10394   10393   10396   10399   10395   10393   10396   10397
   10395   10393   10396   10398   10395   10393   10396   10399
   10397   10396   10399   10400   10398   10396   10399   10400
   10401   10405   10406   10407   10401   10405   10406   10408
   10401   10405   10406   10409   10401   10405   10415   10412
   10401   10405   10415   10416   10402   10401   10405   10406
   10402   10401   10405   10415   10403   10401   10405   10406
   10403   10401   10405   10415   10404   10401   10405   10406
   10404   10401   10405   10415   10405   10406   10409   10410
   10405   10406   10409   10411   10405   10406   10409   10412
   10405   10415   10412   10409   10405   10415   10412   10413
   10405   10415   10412   10414   10406   10405   10415   10412
   10406   10405   10415   10416   10406   10409   10412   10413
   10406   10409   10412   10414   10406   10409   10412   10415
   10407   10406   10405   10415   10407   10406   10409   10410
   10407   10406   10409   10411   10407   10406   10409   10412
   10408   10406   10405   10415   10408   10406   10409   10410
   10408   10406   10409   10411   10408   10406   10409   10412
   10409   10406   10405   10415   10409   10412   10415   10416
   10410   10409   10412   10413   10410   10409   10412   10414
   10410   10409   10412   10415   10411   10409   10412   10413
   10411   10409   10412   10414   10411   10409   10412   10415
   10413   10412   10415   10416   10414   10412   10415   10416
   10417   10421   10422   10423   10417   10421   10422   10424
   10417   10421   10422   10425   10417   10421   10431   10428
   10417   10421   10431   10432   10418   10417   10421   10422
   10418   10417   10421   10431   10419   10417   10421   10422
   10419   10417   10421   10431   10420   10417   10421   10422
   10420   10417   10421   10431   10421   10422   10425   10426
   10421   10422   10425   10427   10421   10422   10425   10428
   10421   10431   10428   10425   10421   10431   10428   10429
   10421   10431   10428   10430   10422   10421   10431   10428
   10422   10421   10431   10432   10422   10425   10428   10429
   10422   10425   10428   10430   10422   10425   10428   10431
   10423   10422   10421   10431   10423   10422   10425   10426
   10423   10422   10425   10427   10423   10422   10425   10428
   10424   10422   10421   10431   10424   10422   10425   10426
   10424   10422   10425   10427   10424   10422   10425   10428
   10425   10422   10421   10431   10425   10428   10431   10432
   10426   10425   10428   10429   10426   10425   10428   10430
   10426   10425   10428   10431   10427   10425   10428   10429
   10427   10425   10428   10430   10427   10425   10428   10431
   10429   10428   10431   10432   10430   10428   10431   10432
   10433   10437   10438   10439   10433   10437   10438   10440
   10433   10437   10438   10441   10433   10437   10447   10444
   10433   10437   10447   10448   10434   10433   10437   10438
   10434   10433   10437   10447   10435   10433   10437   10438
   10435   10433   10437   10447   10436   10433   10437   10438
   10436   10433   10437   10447   10437   10438   10441   10442
   10437   10438   10441   10443   10437   10438   10441   10444
   10437   10447   10444   10441   10437   10447   10444   10445
   10437   10447   10444   10446   10438   10437   10447   10444
   10438   10437   10447   10448   10438   10441   10444   10445
   10438   10441   10444   10446   10438   10441   10444   10447
   10439   10438   10437   10447   10439   10438   10441   10442
   10439   10438   10441   10443   10439   10438   10441   10444
   10440   10438   10437   10447   10440   10438   10441   10442
   10440   10438   10441   10443   10440   10438   10441   10444
   10441   10438   10437   10447   10441   10444   10447   10448
   10442   10441   10444   10445   10442   10441   10444   10446
   10442   10441   10444   10447   10443   10441   10444   10445
   10443   10441   10444   10446   10443   10441   10444   10447
   10445   10444   10447   10448   10446   10444   10447   10448
   10449   10453   10454   10455   10449   10453   10454   10456
   10449   10453   10454   10457   10449   10453   10463   10460
   10449   10453   10463   10464   10450   10449   10453   10454
   10450   10449   10453   10463   10451   10449   10453   10454
   10451   10449   10453   10463   10452   10449   10453   10454
   10452   10449   10453   10463   10453   10454   10457   10458
   10453   10454   10457   10459   10453   10454   10457   10460
   10453   10463   10460   10457   10453   10463   10460   10461
   10453   10463   10460   10462   10454   10453   10463   10460
   10454   10453   10463   10464   10454   10457   10460   10461
   10454   10457   10460   10462   10454   10457   10460   10463
   10455   10454   10453   10463   10455   10454   10457   10458
   10455   10454   10457   10459   10455   10454   10457   10460
   10456   10454   10453   10463   10456   10454   10457   10458
   10456   10454   10457   10459   10456   10454   10457   10460
   10457   10454   10453   10463   10457   10460   10463   10464
   10458   10457   10460   10461   10458   10457   10460   10462
   10458   10457   10460   10463   10459   10457   10460   10461
   10459   10457   10460   10462   10459   10457   10460   10463
   10461   10460   10463   10464   10462   10460   10463   10464
   10465   10469   10470   10471   10465   10469   10470   10472
   10465   10469   10470   10473   10465   10469   10479   10476
   10465   10469   10479   10480   10466   10465   10469   10470
   10466   10465   10469   10479   10467   10465   10469   10470
   10467   10465   10469   10479   10468   10465   10469   10470
   10468   10465   10469   10479   10469   10470   10473   10474
   10469   10470   10473   10475   10469   10470   10473   10476
   10469   10479   10476   10473   10469   10479   10476   10477
   10469   10479   10476   10478   10470   10469   10479   10476
   10470   10469   10479   10480   10470   10473   10476   10477
   10470   10473   10476   10478   10470   10473   10476   10479
   10471   10470   10469   10479   10471   10470   10473   10474
   10471   10470   10473   10475   10471   10470   10473   10476
   10472   10470   10469   10479   10472   10470   10473   10474
   10472   10470   10473   10475   10472   10470   10473   10476
   10473   10470   10469   10479   10473   10476   10479   10480
   10474   10473   10476   10477   10474   10473   10476   10478
   10474   10473   10476   10479   10475   10473   10476   10477
   10475   10473   10476   10478   10475   10473   10476   10479
   10477   10476   10479   10480   10478   10476   10479   10480
   10481   10485   10486   10487   10481   10485   10486   10488
   10481   10485   10486   10489   10481   10485   10495   10492
   10481   10485   10495   10496   10482   10481   10485   10486
   10482   10481   10485   10495   10483   10481   10485   10486
   10483   10481   10485   10495   10484   10481   10485   10486
   10484   10481   10485   10495   10485   10486   10489   10490
   10485   10486   10489   10491   10485   10486   10489   10492
   10485   10495   10492   10489   10485   10495   10492   10493
   10485   10495   10492   10494   10486   10485   10495   10492
   10486   10485   10495   10496   10486   10489   10492   10493
   10486   10489   10492   10494   10486   10489   10492   10495
   10487   10486   10485   10495   10487   10486   10489   10490
   10487   10486   10489   10491   10487   10486   10489   10492
   10488   10486   10485   10495   10488   10486   10489   10490
   10488   10486   10489   10491   10488   10486   10489   10492
   10489   10486   10485   10495   10489   10492   10495   10496
   10490   10489   10492   10493   10490   10489   10492   10494
   10490   10489   10492   10495   10491   10489   10492   10493
   10491   10489   10492   10494   10491   10489   10492   10495
   10493   10492   10495   10496   10494   10492   10495   10496
   10497   10501   10502   10503   10497   10501   10502   10504
   10497   10501   10502   10505   10497   10501   10511   10508
   10497   10501   10511   10512   10498   10497   10501   10502
   10498   10497   10501   10511   10499   10497   10501   10502
   10499   10497   10501   10511   10500   10497   10501   10502
   10500   10497   10501   10511   10501   10502   10505   10506
   10501   10502   10505   10507   10501   10502   10505   10508
   10501   10511   10508   10505   10501   10511   10508   10509
   10501   10511   10508   10510   10502   10501   10511   10508
   10502   10501   10511   10512   10502   10505   10508   10509
   10502   10505   10508   10510   10502   10505   10508   10511
   10503   10502   10501   10511   10503   10502   10505   10506
   10503   10502   10505   10507   10503   10502   10505   10508
   10504   10502   10501   10511   10504   10502   10505   10506
   10504   10502   10505   10507   10504   10502   10505   10508
   10505   10502   10501   10511   10505   10508   10511   10512
   10506   10505   10508   10509   10506   10505   10508   10510
   10506   10505   10508   10511   10507   10505   10508   10509
   10507   10505   10508   10510   10507   10505   10508   10511
   10509   10508   10511   10512   10510   10508   10511   10512
   10513   10517   10518   10519   10513   10517   10518   10520
   10513   10517   10518   10521   10513   10517   10527   10524
   10513   10517   10527   10528   10514   10513   10517   10518
   10514   10513   10517   10527   10515   10513   10517   10518
   10515   10513   10517   10527   10516   10513   10517   10518
   10516   10513   10517   10527   10517   10518   10521   10522
   10517   10518   10521   10523   10517   10518   10521   10524
   10517   10527   10524   10521   10517   10527   10524   10525
   10517   10527   10524   10526   10518   10517   10527   10524
   10518   10517   10527   10528   10518   10521   10524   10525
   10518   10521   10524   10526   10518   10521   10524   10527
   10519   10518   10517   10527   10519   10518   10521   10522
   10519   10518   10521   10523   10519   10518   10521   10524
   10520   10518   10517   10527   10520   10518   10521   10522
   10520   10518   10521   10523   10520   10518   10521   10524
   10521   10518   10517   10527   10521   10524   10527   10528
   10522   10521   10524   10525   10522   10521   10524   10526
   10522   10521   10524   10527   10523   10521   10524   10525
   10523   10521   10524   10526   10523   10521   10524   10527
   10525   10524   10527   10528   10526   10524   10527   10528
   10529   10533   10534   10535   10529   10533   10534   10536
   10529   10533   10534   10537   10529   10533   10543   10540
   10529   10533   10543   10544   10530   10529   10533   10534
   10530   10529   10533   10543   10531   10529   10533   10534
   10531   10529   10533   10543   10532   10529   10533   10534
   10532   10529   10533   10543   10533   10534   10537   10538
   10533   10534   10537   10539   10533   10534   10537   10540
   10533   10543   10540   10537   10533   10543   10540   10541
   10533   10543   10540   10542   10534   10533   10543   10540
   10534   10533   10543   10544   10534   10537   10540   10541
   10534   10537   10540   10542   10534   10537   10540   10543
   10535   10534   10533   10543   10535   10534   10537   10538
   10535   10534   10537   10539   10535   10534   10537   10540
   10536   10534   10533   10543   10536   10534   10537   10538
   10536   10534   10537   10539   10536   10534   10537   10540
   10537   10534   10533   10543   10537   10540   10543   10544
   10538   10537   10540   10541   10538   10537   10540   10542
   10538   10537   10540   10543   10539   10537   10540   10541
   10539   10537   10540   10542   10539   10537   10540   10543
   10541   10540   10543   10544   10542   10540   10543   10544
   10545   10549   10550   10551   10545   10549   10550   10552
   10545   10549   10550   10553   10545   10549   10559   10556
   10545   10549   10559   10560   10546   10545   10549   10550
   10546   10545   10549   10559   10547   10545   10549   10550
   10547   10545   10549   10559   10548   10545   10549   10550
   10548   10545   10549   10559   10549   10550   10553   10554
   10549   10550   10553   10555   10549   10550   10553   10556
   10549   10559   10556   10553   10549   10559   10556   10557
   10549   10559   10556   10558   10550   10549   10559   10556
   10550   10549   10559   10560   10550   10553   10556   10557
   10550   10553   10556   10558   10550   10553   10556   10559
   10551   10550   10549   10559   10551   10550   10553   10554
   10551   10550   10553   10555   10551   10550   10553   10556
   10552   10550   10549   10559   10552   10550   10553   10554
   10552   10550   10553   10555   10552   10550   10553   10556
   10553   10550   10549   10559   10553   10556   10559   10560
   10554   10553   10556   10557   10554   10553   10556   10558
   10554   10553   10556   10559   10555   10553   10556   10557
   10555   10553   10556   10558   10555   10553   10556   10559
   10557   10556   10559   10560   10558   10556   10559   10560
   10561   10565   10566   10567   10561   10565   10566   10568
   10561   10565   10566   10569   10561   10565   10575   10572
   10561   10565   10575   10576   10562   10561   10565   10566
   10562   10561   10565   10575   10563   10561   10565   10566
   10563   10561   10565   10575   10564   10561   10565   10566
   10564   10561   10565   10575   10565   10566   10569   10570
   10565   10566   10569   10571   10565   10566   10569   10572
   10565   10575   10572   10569   10565   10575   10572   10573
   10565   10575   10572   10574   10566   10565   10575   10572
   10566   10565   10575   10576   10566   10569   10572   10573
   10566   10569   10572   10574   10566   10569   10572   10575
   10567   10566   10565   10575   10567   10566   10569   10570
   10567   10566   10569   10571   10567   10566   10569   10572
   10568   10566   10565   10575   10568   10566   10569   10570
   10568   10566   10569   10571   10568   10566   10569   10572
   10569   10566   10565   10575   10569   10572   10575   10576
   10570   10569   10572   10573   10570   10569   10572   10574
   10570   10569   10572   10575   10571   10569   10572   10573
   10571   10569   10572   10574   10571   10569   10572   10575
   10573   10572   10575   10576   10574   10572   10575   10576
   10577   10581   10582   10583   10577   10581   10582   10584
   10577   10581   10582   10585   10577   10581   10591   10588
   10577   10581   10591   10592   10578   10577   10581   10582
   10578   10577   10581   10591   10579   10577   10581   10582
   10579   10577   10581   10591   10580   10577   10581   10582
   10580   10577   10581   10591   10581   10582   10585   10586
   10581   10582   10585   10587   10581   10582   10585   10588
   10581   10591   10588   10585   10581   10591   10588   10589
   10581   10591   10588   10590   10582   10581   10591   10588
   10582   10581   10591   10592   10582   10585   10588   10589
   10582   10585   10588   10590   10582   10585   10588   10591
   10583   10582   10581   10591   10583   10582   10585   10586
   10583   10582   10585   10587   10583   10582   10585   10588
   10584   10582   10581   10591   10584   10582   10585   10586
   10584   10582   10585   10587   10584   10582   10585   10588
   10585   10582   10581   10591   10585   10588   10591   10592
   10586   10585   10588   10589   10586   10585   10588   10590
   10586   10585   10588   10591   10587   10585   10588   10589
   10587   10585   10588   10590   10587   10585   10588   10591
   10589   10588   10591   10592   10590   10588   10591   10592
   10593   10597   10598   10599   10593   10597   10598   10600
   10593   10597   10598   10601   10593   10597   10607   10604
   10593   10597   10607   10608   10594   10593   10597   10598
   10594   10593   10597   10607   10595   10593   10597   10598
   10595   10593   10597   10607   10596   10593   10597   10598
   10596   10593   10597   10607   10597   10598   10601   10602
   10597   10598   10601   10603   10597   10598   10601   10604
   10597   10607   10604   10601   10597   10607   10604   10605
   10597   10607   10604   10606   10598   10597   10607   10604
   10598   10597   10607   10608   10598   10601   10604   10605
   10598   10601   10604   10606   10598   10601   10604   10607
   10599   10598   10597   10607   10599   10598   10601   10602
   10599   10598   10601   10603   10599   10598   10601   10604
   10600   10598   10597   10607   10600   10598   10601   10602
   10600   10598   10601   10603   10600   10598   10601   10604
   10601   10598   10597   10607   10601   10604   10607   10608
   10602   10601   10604   10605   10602   10601   10604   10606
   10602   10601   10604   10607   10603   10601   10604   10605
   10603   10601   10604   10606   10603   10601   10604   10607
   10605   10604   10607   10608   10606   10604   10607   10608
   10609   10613   10614   10615   10609   10613   10614   10616
   10609   10613   10614   10617   10609   10613   10623   10620
   10609   10613   10623   10624   10610   10609   10613   10614
   10610   10609   10613   10623   10611   10609   10613   10614
   10611   10609   10613   10623   10612   10609   10613   10614
   10612   10609   10613   10623   10613   10614   10617   10618
   10613   10614   10617   10619   10613   10614   10617   10620
   10613   10623   10620   10617   10613   10623   10620   10621
   10613   10623   10620   10622   10614   10613   10623   10620
   10614   10613   10623   10624   10614   10617   10620   10621
   10614   10617   10620   10622   10614   10617   10620   10623
   10615   10614   10613   10623   10615   10614   10617   10618
   10615   10614   10617   10619   10615   10614   10617   10620
   10616   10614   10613   10623   10616   10614   10617   10618
   10616   10614   10617   10619   10616   10614   10617   10620
   10617   10614   10613   10623   10617   10620   10623   10624
   10618   10617   10620   10621   10618   10617   10620   10622
   10618   10617   10620   10623   10619   10617   10620   10621
   10619   10617   10620   10622   10619   10617   10620   10623
   10621   10620   10623   10624   10622   10620   10623   10624
   10625   10629   10630   10631   10625   10629   10630   10632
   10625   10629   10630   10633   10625   10629   10639   10636
   10625   10629   10639   10640   10626   10625   10629   10630
   10626   10625   10629   10639   10627   10625   10629   10630
   10627   10625   10629   10639   10628   10625   10629   10630
   10628   10625   10629   10639   10629   10630   10633   10634
   10629   10630   10633   10635   10629   10630   10633   10636
   10629   10639   10636   10633   10629   10639   10636   10637
   10629   10639   10636   10638   10630   10629   10639   10636
   10630   10629   10639   10640   10630   10633   10636   10637
   10630   10633   10636   10638   10630   10633   10636   10639
   10631   10630   10629   10639   10631   10630   10633   10634
   10631   10630   10633   10635   10631   10630   10633   10636
   10632   10630   10629   10639   10632   10630   10633   10634
   10632   10630   10633   10635   10632   10630   10633   10636
   10633   10630   10629   10639   10633   10636   10639   10640
   10634   10633   10636   10637   10634   10633   10636   10638
   10634   10633   10636   10639   10635   10633   10636   10637
   10635   10633   10636   10638   10635   10633   10636   10639
   10637   10636   10639   10640   10638   10636   10639   10640
   10641   10645   10646   10647   10641   10645   10646   10648
   10641   10645   10646   10649   10641   10645   10655   10652
   10641   10645   10655   10656   10642   10641   10645   10646
   10642   10641   10645   10655   10643   10641   10645   10646
   10643   10641   10645   10655   10644   10641   10645   10646
   10644   10641   10645   10655   10645   10646   10649   10650
   10645   10646   10649   10651   10645   10646   10649   10652
   10645   10655   10652   10649   10645   10655   10652   10653
   10645   10655   10652   10654   10646   10645   10655   10652
   10646   10645   10655   10656   10646   10649   10652   10653
   10646   10649   10652   10654   10646   10649   10652   10655
   10647   10646   10645   10655   10647   10646   10649   10650
   10647   10646   10649   10651   10647   10646   10649   10652
   10648   10646   10645   10655   10648   10646   10649   10650
   10648   10646   10649   10651   10648   10646   10649   10652
   10649   10646   10645   10655   10649   10652   10655   10656
   10650   10649   10652   10653   10650   10649   10652   10654
   10650   10649   10652   10655   10651   10649   10652   10653
   10651   10649   10652   10654   10651   10649   10652   10655
   10653   10652   10655   10656   10654   10652   10655   10656
   10657   10661   10662   10663   10657   10661   10662   10664
   10657   10661   10662   10665   10657   10661   10671   10668
   10657   10661   10671   10672   10658   10657   10661   10662
   10658   10657   10661   10671   10659   10657   10661   10662
   10659   10657   10661   10671   10660   10657   10661   10662
   10660   10657   10661   10671   10661   10662   10665   10666
   10661   10662   10665   10667   10661   10662   10665   10668
   10661   10671   10668   10665   10661   10671   10668   10669
   10661   10671   10668   10670   10662   10661   10671   10668
   10662   10661   10671   10672   10662   10665   10668   10669
   10662   10665   10668   10670   10662   10665   10668   10671
   10663   10662   10661   10671   10663   10662   10665   10666
   10663   10662   10665   10667   10663   10662   10665   10668
   10664   10662   10661   10671   10664   10662   10665   10666
   10664   10662   10665   10667   10664   10662   10665   10668
   10665   10662   10661   10671   10665   10668   10671   10672
   10666   10665   10668   10669   10666   10665   10668   10670
   10666   10665   10668   10671   10667   10665   10668   10669
   10667   10665   10668   10670   10667   10665   10668   10671
   10669   10668   10671   10672   10670   10668   10671   10672
   10673   10677   10678   10679   10673   10677   10678   10680
   10673   10677   10678   10681   10673   10677   10687   10684
   10673   10677   10687   10688   10674   10673   10677   10678
   10674   10673   10677   10687   10675   10673   10677   10678
   10675   10673   10677   10687   10676   10673   10677   10678
   10676   10673   10677   10687   10677   10678   10681   10682
   10677   10678   10681   10683   10677   10678   10681   10684
   10677   10687   10684   10681   10677   10687   10684   10685
   10677   10687   10684   10686   10678   10677   10687   10684
   10678   10677   10687   10688   10678   10681   10684   10685
   10678   10681   10684   10686   10678   10681   10684   10687
   10679   10678   10677   10687   10679   10678   10681   10682
   10679   10678   10681   10683   10679   10678   10681   10684
   10680   10678   10677   10687   10680   10678   10681   10682
   10680   10678   10681   10683   10680   10678   10681   10684
   10681   10678   10677   10687   10681   10684   10687   10688
   10682   10681   10684   10685   10682   10681   10684   10686
   10682   10681   10684   10687   10683   10681   10684   10685
   10683   10681   10684   10686   10683   10681   10684   10687
   10685   10684   10687   10688   10686   10684   10687   10688
   10689   10693   10694   10695   10689   10693   10694   10696
   10689   10693   10694   10697   10689   10693   10703   10700
   10689   10693   10703   10704   10690   10689   10693   10694
   10690   10689   10693   10703   10691   10689   10693   10694
   10691   10689   10693   10703   10692   10689   10693   10694
   10692   10689   10693   10703   10693   10694   10697   10698
   10693   10694   10697   10699   10693   10694   10697   10700
   10693   10703   10700   10697   10693   10703   10700   10701
   10693   10703   10700   10702   10694   10693   10703   10700
   10694   10693   10703   10704   10694   10697   10700   10701
   10694   10697   10700   10702   10694   10697   10700   10703
   10695   10694   10693   10703   10695   10694   10697   10698
   10695   10694   10697   10699   10695   10694   10697   10700
   10696   10694   10693   10703   10696   10694   10697   10698
   10696   10694   10697   10699   10696   10694   10697   10700
   10697   10694   10693   10703   10697   10700   10703   10704
   10698   10697   10700   10701   10698   10697   10700   10702
   10698   10697   10700   10703   10699   10697   10700   10701
   10699   10697   10700   10702   10699   10697   10700   10703
   10701   10700   10703   10704   10702   10700   10703   10704
   10705   10709   10710   10711   10705   10709   10710   10712
   10705   10709   10710   10713   10705   10709   10719   10716
   10705   10709   10719   10720   10706   10705   10709   10710
   10706   10705   10709   10719   10707   10705   10709   10710
   10707   10705   10709   10719   10708   10705   10709   10710
   10708   10705   10709   10719   10709   10710   10713   10714
   10709   10710   10713   10715   10709   10710   10713   10716
   10709   10719   10716   10713   10709   10719   10716   10717
   10709   10719   10716   10718   10710   10709   10719   10716
   10710   10709   10719   10720   10710   10713   10716   10717
   10710   10713   10716   10718   10710   10713   10716   10719
   10711   10710   10709   10719   10711   10710   10713   10714
   10711   10710   10713   10715   10711   10710   10713   10716
   10712   10710   10709   10719   10712   10710   10713   10714
   10712   10710   10713   10715   10712   10710   10713   10716
   10713   10710   10709   10719   10713   10716   10719   10720
   10714   10713   10716   10717   10714   10713   10716   10718
   10714   10713   10716   10719   10715   10713   10716   10717
   10715   10713   10716   10718   10715   10713   10716   10719
   10717   10716   10719   10720   10718   10716   10719   10720
   10721   10725   10726   10727   10721   10725   10726   10728
   10721   10725   10726   10729   10721   10725   10735   10732
   10721   10725   10735   10736   10722   10721   10725   10726
   10722   10721   10725   10735   10723   10721   10725   10726
   10723   10721   10725   10735   10724   10721   10725   10726
   10724   10721   10725   10735   10725   10726   10729   10730
   10725   10726   10729   10731   10725   10726   10729   10732
   10725   10735   10732   10729   10725   10735   10732   10733
   10725   10735   10732   10734   10726   10725   10735   10732
   10726   10725   10735   10736   10726   10729   10732   10733
   10726   10729   10732   10734   10726   10729   10732   10735
   10727   10726   10725   10735   10727   10726   10729   10730
   10727   10726   10729   10731   10727   10726   10729   10732
   10728   10726   10725   10735   10728   10726   10729   10730
   10728   10726   10729   10731   10728   10726   10729   10732
   10729   10726   10725   10735   10729   10732   10735   10736
   10730   10729   10732   10733   10730   10729   10732   10734
   10730   10729   10732   10735   10731   10729   10732   10733
   10731   10729   10732   10734   10731   10729   10732   10735
   10733   10732   10735   10736   10734   10732   10735   10736
   10737   10741   10742   10743   10737   10741   10742   10744
   10737   10741   10742   10745   10737   10741   10751   10748
   10737   10741   10751   10752   10738   10737   10741   10742
   10738   10737   10741   10751   10739   10737   10741   10742
   10739   10737   10741   10751   10740   10737   10741   10742
   10740   10737   10741   10751   10741   10742   10745   10746
   10741   10742   10745   10747   10741   10742   10745   10748
   10741   10751   10748   10745   10741   10751   10748   10749
   10741   10751   10748   10750   10742   10741   10751   10748
   10742   10741   10751   10752   10742   10745   10748   10749
   10742   10745   10748   10750   10742   10745   10748   10751
   10743   10742   10741   10751   10743   10742   10745   10746
   10743   10742   10745   10747   10743   10742   10745   10748
   10744   10742   10741   10751   10744   10742   10745   10746
   10744   10742   10745   10747   10744   10742   10745   10748
   10745   10742   10741   10751   10745   10748   10751   10752
   10746   10745   10748   10749   10746   10745   10748   10750
   10746   10745   10748   10751   10747   10745   10748   10749
   10747   10745   10748   10750   10747   10745   10748   10751
   10749   10748   10751   10752   10750   10748   10751   10752
   10753   10757   10758   10759   10753   10757   10758   10760
   10753   10757   10758   10761   10753   10757   10767   10764
   10753   10757   10767   10768   10754   10753   10757   10758
   10754   10753   10757   10767   10755   10753   10757   10758
   10755   10753   10757   10767   10756   10753   10757   10758
   10756   10753   10757   10767   10757   10758   10761   10762
   10757   10758   10761   10763   10757   10758   10761   10764
   10757   10767   10764   10761   10757   10767   10764   10765
   10757   10767   10764   10766   10758   10757   10767   10764
   10758   10757   10767   10768   10758   10761   10764   10765
   10758   10761   10764   10766   10758   10761   10764   10767
   10759   10758   10757   10767   10759   10758   10761   10762
   10759   10758   10761   10763   10759   10758   10761   10764
   10760   10758   10757   10767   10760   10758   10761   10762
   10760   10758   10761   10763   10760   10758   10761   10764
   10761   10758   10757   10767   10761   10764   10767   10768
   10762   10761   10764   10765   10762   10761   10764   10766
   10762   10761   10764   10767   10763   10761   10764   10765
   10763   10761   10764   10766   10763   10761   10764   10767
   10765   10764   10767   10768   10766   10764   10767   10768
   10769   10773   10774   10775   10769   10773   10774   10776
   10769   10773   10774   10777   10769   10773   10783   10780
   10769   10773   10783   10784   10770   10769   10773   10774
   10770   10769   10773   10783   10771   10769   10773   10774
   10771   10769   10773   10783   10772   10769   10773   10774
   10772   10769   10773   10783   10773   10774   10777   10778
   10773   10774   10777   10779   10773   10774   10777   10780
   10773   10783   10780   10777   10773   10783   10780   10781
   10773   10783   10780   10782   10774   10773   10783   10780
   10774   10773   10783   10784   10774   10777   10780   10781
   10774   10777   10780   10782   10774   10777   10780   10783
   10775   10774   10773   10783   10775   10774   10777   10778
   10775   10774   10777   10779   10775   10774   10777   10780
   10776   10774   10773   10783   10776   10774   10777   10778
   10776   10774   10777   10779   10776   10774   10777   10780
   10777   10774   10773   10783   10777   10780   10783   10784
   10778   10777   10780   10781   10778   10777   10780   10782
   10778   10777   10780   10783   10779   10777   10780   10781
   10779   10777   10780   10782   10779   10777   10780   10783
   10781   10780   10783   10784   10782   10780   10783   10784
   10785   10789   10790   10791   10785   10789   10790   10792
   10785   10789   10790   10793   10785   10789   10799   10796
   10785   10789   10799   10800   10786   10785   10789   10790
   10786   10785   10789   10799   10787   10785   10789   10790
   10787   10785   10789   10799   10788   10785   10789   10790
   10788   10785   10789   10799   10789   10790   10793   10794
   10789   10790   10793   10795   10789   10790   10793   10796
   10789   10799   10796   10793   10789   10799   10796   10797
   10789   10799   10796   10798   10790   10789   10799   10796
   10790   10789   10799   10800   10790   10793   10796   10797
   10790   10793   10796   10798   10790   10793   10796   10799
   10791   10790   10789   10799   10791   10790   10793   10794
   10791   10790   10793   10795   10791   10790   10793   10796
   10792   10790   10789   10799   10792   10790   10793   10794
   10792   10790   10793   10795   10792   10790   10793   10796
   10793   10790   10789   10799   10793   10796   10799   10800
   10794   10793   10796   10797   10794   10793   10796   10798
   10794   10793   10796   10799   10795   10793   10796   10797
   10795   10793   10796   10798   10795   10793   10796   10799
   10797   10796   10799   10800   10798   10796   10799   10800
   10801   10805   10806   10807   10801   10805   10806   10808
   10801   10805   10806   10809   10801   10805   10815   10812
   10801   10805   10815   10816   10802   10801   10805   10806
   10802   10801   10805   10815   10803   10801   10805   10806
   10803   10801   10805   10815   10804   10801   10805   10806
   10804   10801   10805   10815   10805   10806   10809   10810
   10805   10806   10809   10811   10805   10806   10809   10812
   10805   10815   10812   10809   10805   10815   10812   10813
   10805   10815   10812   10814   10806   10805   10815   10812
   10806   10805   10815   10816   10806   10809   10812   10813
   10806   10809   10812   10814   10806   10809   10812   10815
   10807   10806   10805   10815   10807   10806   10809   10810
   10807   10806   10809   10811   10807   10806   10809   10812
   10808   10806   10805   10815   10808   10806   10809   10810
   10808   10806   10809   10811   10808   10806   10809   10812
   10809   10806   10805   10815   10809   10812   10815   10816
   10810   10809   10812   10813   10810   10809   10812   10814
   10810   10809   10812   10815   10811   10809   10812   10813
   10811   10809   10812   10814   10811   10809   10812   10815
   10813   10812   10815   10816   10814   10812   10815   10816
   10817   10821   10822   10823   10817   10821   10822   10824
   10817   10821   10822   10825   10817   10821   10831   10828
   10817   10821   10831   10832   10818   10817   10821   10822
   10818   10817   10821   10831   10819   10817   10821   10822
   10819   10817   10821   10831   10820   10817   10821   10822
   10820   10817   10821   10831   10821   10822   10825   10826
   10821   10822   10825   10827   10821   10822   10825   10828
   10821   10831   10828   10825   10821   10831   10828   10829
   10821   10831   10828   10830   10822   10821   10831   10828
   10822   10821   10831   10832   10822   10825   10828   10829
   10822   10825   10828   10830   10822   10825   10828   10831
   10823   10822   10821   10831   10823   10822   10825   10826
   10823   10822   10825   10827   10823   10822   10825   10828
   10824   10822   10821   10831   10824   10822   10825   10826
   10824   10822   10825   10827   10824   10822   10825   10828
   10825   10822   10821   10831   10825   10828   10831   10832
   10826   10825   10828   10829   10826   10825   10828   10830
   10826   10825   10828   10831   10827   10825   10828   10829
   10827   10825   10828   10830   10827   10825   10828   10831
   10829   10828   10831   10832   10830   10828   10831   10832
   10833   10837   10838   10839   10833   10837   10838   10840
   10833   10837   10838   10841   10833   10837   10847   10844
   10833   10837   10847   10848   10834   10833   10837   10838
   10834   10833   10837   10847   10835   10833   10837   10838
   10835   10833   10837   10847   10836   10833   10837   10838
   10836   10833   10837   10847   10837   10838   10841   10842
   10837   10838   10841   10843   10837   10838   10841   10844
   10837   10847   10844   10841   10837   10847   10844   10845
   10837   10847   10844   10846   10838   10837   10847   10844
   10838   10837   10847   10848   10838   10841   10844   10845
   10838   10841   10844   10846   10838   10841   10844   10847
   10839   10838   10837   10847   10839   10838   10841   10842
   10839   10838   10841   10843   10839   10838   10841   10844
   10840   10838   10837   10847   10840   10838   10841   10842
   10840   10838   10841   10843   10840   10838   10841   10844
   10841   10838   10837   10847   10841   10844   10847   10848
   10842   10841   10844   10845   10842   10841   10844   10846
   10842   10841   10844   10847   10843   10841   10844   10845
   10843   10841   10844   10846   10843   10841   10844   10847
   10845   10844   10847   10848   10846   10844   10847   10848
   10849   10853   10854   10855   10849   10853   10854   10856
   10849   10853   10854   10857   10849   10853   10863   10860
   10849   10853   10863   10864   10850   10849   10853   10854
   10850   10849   10853   10863   10851   10849   10853   10854
   10851   10849   10853   10863   10852   10849   10853   10854
   10852   10849   10853   10863   10853   10854   10857   10858
   10853   10854   10857   10859   10853   10854   10857   10860
   10853   10863   10860   10857   10853   10863   10860   10861
   10853   10863   10860   10862   10854   10853   10863   10860
   10854   10853   10863   10864   10854   10857   10860   10861
   10854   10857   10860   10862   10854   10857   10860   10863
   10855   10854   10853   10863   10855   10854   10857   10858
   10855   10854   10857   10859   10855   10854   10857   10860
   10856   10854   10853   10863   10856   10854   10857   10858
   10856   10854   10857   10859   10856   10854   10857   10860
   10857   10854   10853   10863   10857   10860   10863   10864
   10858   10857   10860   10861   10858   10857   10860   10862
   10858   10857   10860   10863   10859   10857   10860   10861
   10859   10857   10860   10862   10859   10857   10860   10863
   10861   10860   10863   10864   10862   10860   10863   10864
   10865   10869   10870   10871   10865   10869   10870   10872
   10865   10869   10870   10873   10865   10869   10879   10876
   10865   10869   10879   10880   10866   10865   10869   10870
   10866   10865   10869   10879   10867   10865   10869   10870
   10867   10865   10869   10879   10868   10865   10869   10870
   10868   10865   10869   10879   10869   10870   10873   10874
   10869   10870   10873   10875   10869   10870   10873   10876
   10869   10879   10876   10873   10869   10879   10876   10877
   10869   10879   10876   10878   10870   10869   10879   10876
   10870   10869   10879   10880   10870   10873   10876   10877
   10870   10873   10876   10878   10870   10873   10876   10879
   10871   10870   10869   10879   10871   10870   10873   10874
   10871   10870   10873   10875   10871   10870   10873   10876
   10872   10870   10869   10879   10872   10870   10873   10874
   10872   10870   10873   10875   10872   10870   10873   10876
   10873   10870   10869   10879   10873   10876   10879   10880
   10874   10873   10876   10877   10874   10873   10876   10878
   10874   10873   10876   10879   10875   10873   10876   10877
   10875   10873   10876   10878   10875   10873   10876   10879
   10877   10876   10879   10880   10878   10876   10879   10880
   10881   10885   10886   10887   10881   10885   10886   10888
   10881   10885   10886   10889   10881   10885   10895   10892
   10881   10885   10895   10896   10882   10881   10885   10886
   10882   10881   10885   10895   10883   10881   10885   10886
   10883   10881   10885   10895   10884   10881   10885   10886
   10884   10881   10885   10895   10885   10886   10889   10890
   10885   10886   10889   10891   10885   10886   10889   10892
   10885   10895   10892   10889   10885   10895   10892   10893
   10885   10895   10892   10894   10886   10885   10895   10892
   10886   10885   10895   10896   10886   10889   10892   10893
   10886   10889   10892   10894   10886   10889   10892   10895
   10887   10886   10885   10895   10887   10886   10889   10890
   10887   10886   10889   10891   10887   10886   10889   10892
   10888   10886   10885   10895   10888   10886   10889   10890
   10888   10886   10889   10891   10888   10886   10889   10892
   10889   10886   10885   10895   10889   10892   10895   10896
   10890   10889   10892   10893   10890   10889   10892   10894
   10890   10889   10892   10895   10891   10889   10892   10893
   10891   10889   10892   10894   10891   10889   10892   10895
   10893   10892   10895   10896   10894   10892   10895   10896
   10897   10901   10902   10903   10897   10901   10902   10904
   10897   10901   10902   10905   10897   10901   10911   10908
   10897   10901   10911   10912   10898   10897   10901   10902
   10898   10897   10901   10911   10899   10897   10901   10902
   10899   10897   10901   10911   10900   10897   10901   10902
   10900   10897   10901   10911   10901   10902   10905   10906
   10901   10902   10905   10907   10901   10902   10905   10908
   10901   10911   10908   10905   10901   10911   10908   10909
   10901   10911   10908   10910   10902   10901   10911   10908
   10902   10901   10911   10912   10902   10905   10908   10909
   10902   10905   10908   10910   10902   10905   10908   10911
   10903   10902   10901   10911   10903   10902   10905   10906
   10903   10902   10905   10907   10903   10902   10905   10908
   10904   10902   10901   10911   10904   10902   10905   10906
   10904   10902   10905   10907   10904   10902   10905   10908
   10905   10902   10901   10911   10905   10908   10911   10912
   10906   10905   10908   10909   10906   10905   10908   10910
   10906   10905   10908   10911   10907   10905   10908   10909
   10907   10905   10908   10910   10907   10905   10908   10911
   10909   10908   10911   10912   10910   10908   10911   10912
   10913   10917   10918   10919   10913   10917   10918   10920
   10913   10917   10918   10921   10913   10917   10927   10924
   10913   10917   10927   10928   10914   10913   10917   10918
   10914   10913   10917   10927   10915   10913   10917   10918
   10915   10913   10917   10927   10916   10913   10917   10918
   10916   10913   10917   10927   10917   10918   10921   10922
   10917   10918   10921   10923   10917   10918   10921   10924
   10917   10927   10924   10921   10917   10927   10924   10925
   10917   10927   10924   10926   10918   10917   10927   10924
   10918   10917   10927   10928   10918   10921   10924   10925
   10918   10921   10924   10926   10918   10921   10924   10927
   10919   10918   10917   10927   10919   10918   10921   10922
   10919   10918   10921   10923   10919   10918   10921   10924
   10920   10918   10917   10927   10920   10918   10921   10922
   10920   10918   10921   10923   10920   10918   10921   10924
   10921   10918   10917   10927   10921   10924   10927   10928
   10922   10921   10924   10925   10922   10921   10924   10926
   10922   10921   10924   10927   10923   10921   10924   10925
   10923   10921   10924   10926   10923   10921   10924   10927
   10925   10924   10927   10928   10926   10924   10927   10928
   10929   10933   10934   10935   10929   10933   10934   10936
   10929   10933   10934   10937   10929   10933   10943   10940
   10929   10933   10943   10944   10930   10929   10933   10934
   10930   10929   10933   10943   10931   10929   10933   10934
   10931   10929   10933   10943   10932   10929   10933   10934
   10932   10929   10933   10943   10933   10934   10937   10938
   10933   10934   10937   10939   10933   10934   10937   10940
   10933   10943   10940   10937   10933   10943   10940   10941
   10933   10943   10940   10942   10934   10933   10943   10940
   10934   10933   10943   10944   10934   10937   10940   10941
   10934   10937   10940   10942   10934   10937   10940   10943
   10935   10934   10933   10943   10935   10934   10937   10938
   10935   10934   10937   10939   10935   10934   10937   10940
   10936   10934   10933   10943   10936   10934   10937   10938
   10936   10934   10937   10939   10936   10934   10937   10940
   10937   10934   10933   10943   10937   10940   10943   10944
   10938   10937   10940   10941   10938   10937   10940   10942
   10938   10937   10940   10943   10939   10937   10940   10941
   10939   10937   10940   10942   10939   10937   10940   10943
   10941   10940   10943   10944   10942   10940   10943   10944
   10945   10949   10950   10951   10945   10949   10950   10952
   10945   10949   10950   10953   10945   10949   10959   10956
   10945   10949   10959   10960   10946   10945   10949   10950
   10946   10945   10949   10959   10947   10945   10949   10950
   10947   10945   10949   10959   10948   10945   10949   10950
   10948   10945   10949   10959   10949   10950   10953   10954
   10949   10950   10953   10955   10949   10950   10953   10956
   10949   10959   10956   10953   10949   10959   10956   10957
   10949   10959   10956   10958   10950   10949   10959   10956
   10950   10949   10959   10960   10950   10953   10956   10957
   10950   10953   10956   10958   10950   10953   10956   10959
   10951   10950   10949   10959   10951   10950   10953   10954
   10951   10950   10953   10955   10951   10950   10953   10956
   10952   10950   10949   10959   10952   10950   10953   10954
   10952   10950   10953   10955   10952   10950   10953   10956
   10953   10950   10949   10959   10953   10956   10959   10960
   10954   10953   10956   10957   10954   10953   10956   10958
   10954   10953   10956   10959   10955   10953   10956   10957
   10955   10953   10956   10958   10955   10953   10956   10959
   10957   10956   10959   10960   10958   10956   10959   10960
   10961   10965   10966   10967   10961   10965   10966   10968
   10961   10965   10966   10969   10961   10965   10975   10972
   10961   10965   10975   10976   10962   10961   10965   10966
   10962   10961   10965   10975   10963   10961   10965   10966
   10963   10961   10965   10975   10964   10961   10965   10966
   10964   10961   10965   10975   10965   10966   10969   10970
   10965   10966   10969   10971   10965   10966   10969   10972
   10965   10975   10972   10969   10965   10975   10972   10973
   10965   10975   10972   10974   10966   10965   10975   10972
   10966   10965   10975   10976   10966   10969   10972   10973
   10966   10969   10972   10974   10966   10969   10972   10975
   10967   10966   10965   10975   10967   10966   10969   10970
   10967   10966   10969   10971   10967   10966   10969   10972
   10968   10966   10965   10975   10968   10966   10969   10970
   10968   10966   10969   10971   10968   10966   10969   10972
   10969   10966   10965   10975   10969   10972   10975   10976
   10970   10969   10972   10973   10970   10969   10972   10974
   10970   10969   10972   10975   10971   10969   10972   10973
   10971   10969   10972   10974   10971   10969   10972   10975
   10973   10972   10975   10976   10974   10972   10975   10976
   10977   10981   10982   10983   10977   10981   10982   10984
   10977   10981   10982   10985   10977   10981   10991   10988
   10977   10981   10991   10992   10978   10977   10981   10982
   10978   10977   10981   10991   10979   10977   10981   10982
   10979   10977   10981   10991   10980   10977   10981   10982
   10980   10977   10981   10991   10981   10982   10985   10986
   10981   10982   10985   10987   10981   10982   10985   10988
   10981   10991   10988   10985   10981   10991   10988   10989
   10981   10991   10988   10990   10982   10981   10991   10988
   10982   10981   10991   10992   10982   10985   10988   10989
   10982   10985   10988   10990   10982   10985   10988   10991
   10983   10982   10981   10991   10983   10982   10985   10986
   10983   10982   10985   10987   10983   10982   10985   10988
   10984   10982   10981   10991   10984   10982   10985   10986
   10984   10982   10985   10987   10984   10982   10985   10988
   10985   10982   10981   10991   10985   10988   10991   10992
   10986   10985   10988   10989   10986   10985   10988   10990
   10986   10985   10988   10991   10987   10985   10988   10989
   10987   10985   10988   10990   10987   10985   10988   10991
   10989   10988   10991   10992   10990   10988   10991   10992
   10993   10997   10998   10999   10993   10997   10998   11000
   10993   10997   10998   11001   10993   10997   11007   11004
   10993   10997   11007   11008   10994   10993   10997   10998
   10994   10993   10997   11007   10995   10993   10997   10998
   10995   10993   10997   11007   10996   10993   10997   10998
   10996   10993   10997   11007   10997   10998   11001   11002
   10997   10998   11001   11003   10997   10998   11001   11004
   10997   11007   11004   11001   10997   11007   11004   11005
   10997   11007   11004   11006   10998   10997   11007   11004
   10998   10997   11007   11008   10998   11001   11004   11005
   10998   11001   11004   11006   10998   11001   11004   11007
   10999   10998   10997   11007   10999   10998   11001   11002
   10999   10998   11001   11003   10999   10998   11001   11004
   11000   10998   10997   11007   11000   10998   11001   11002
   11000   10998   11001   11003   11000   10998   11001   11004
   11001   10998   10997   11007   11001   11004   11007   11008
   11002   11001   11004   11005   11002   11001   11004   11006
   11002   11001   11004   11007   11003   11001   11004   11005
   11003   11001   11004   11006   11003   11001   11004   11007
   11005   11004   11007   11008   11006   11004   11007   11008
   11009   11013   11014   11015   11009   11013   11014   11016
   11009   11013   11014   11017   11009   11013   11023   11020
   11009   11013   11023   11024   11010   11009   11013   11014
   11010   11009   11013   11023   11011   11009   11013   11014
   11011   11009   11013   11023   11012   11009   11013   11014
   11012   11009   11013   11023   11013   11014   11017   11018
   11013   11014   11017   11019   11013   11014   11017   11020
   11013   11023   11020   11017   11013   11023   11020   11021
   11013   11023   11020   11022   11014   11013   11023   11020
   11014   11013   11023   11024   11014   11017   11020   11021
   11014   11017   11020   11022   11014   11017   11020   11023
   11015   11014   11013   11023   11015   11014   11017   11018
   11015   11014   11017   11019   11015   11014   11017   11020
   11016   11014   11013   11023   11016   11014   11017   11018
   11016   11014   11017   11019   11016   11014   11017   11020
   11017   11014   11013   11023   11017   11020   11023   11024
   11018   11017   11020   11021   11018   11017   11020   11022
   11018   11017   11020   11023   11019   11017   11020   11021
   11019   11017   11020   11022   11019   11017   11020   11023
   11021   11020   11023   11024   11022   11020   11023   11024
   11025   11029   11030   11031   11025   11029   11030   11032
   11025   11029   11030   11033   11025   11029   11039   11036
   11025   11029   11039   11040   11026   11025   11029   11030
   11026   11025   11029   11039   11027   11025   11029   11030
   11027   11025   11029   11039   11028   11025   11029   11030
   11028   11025   11029   11039   11029   11030   11033   11034
   11029   11030   11033   11035   11029   11030   11033   11036
   11029   11039   11036   11033   11029   11039   11036   11037
   11029   11039   11036   11038   11030   11029   11039   11036
   11030   11029   11039   11040   11030   11033   11036   11037
   11030   11033   11036   11038   11030   11033   11036   11039
   11031   11030   11029   11039   11031   11030   11033   11034
   11031   11030   11033   11035   11031   11030   11033   11036
   11032   11030   11029   11039   11032   11030   11033   11034
   11032   11030   11033   11035   11032   11030   11033   11036
   11033   11030   11029   11039   11033   11036   11039   11040
   11034   11033   11036   11037   11034   11033   11036   11038
   11034   11033   11036   11039   11035   11033   11036   11037
   11035   11033   11036   11038   11035   11033   11036   11039
   11037   11036   11039   11040   11038   11036   11039   11040
   11041   11045   11046   11047   11041   11045   11046   11048
   11041   11045   11046   11049   11041   11045   11055   11052
   11041   11045   11055   11056   11042   11041   11045   11046
   11042   11041   11045   11055   11043   11041   11045   11046
   11043   11041   11045   11055   11044   11041   11045   11046
   11044   11041   11045   11055   11045   11046   11049   11050
   11045   11046   11049   11051   11045   11046   11049   11052
   11045   11055   11052   11049   11045   11055   11052   11053
   11045   11055   11052   11054   11046   11045   11055   11052
   11046   11045   11055   11056   11046   11049   11052   11053
   11046   11049   11052   11054   11046   11049   11052   11055
   11047   11046   11045   11055   11047   11046   11049   11050
   11047   11046   11049   11051   11047   11046   11049   11052
   11048   11046   11045   11055   11048   11046   11049   11050
   11048   11046   11049   11051   11048   11046   11049   11052
   11049   11046   11045   11055   11049   11052   11055   11056
   11050   11049   11052   11053   11050   11049   11052   11054
   11050   11049   11052   11055   11051   11049   11052   11053
   11051   11049   11052   11054   11051   11049   11052   11055
   11053   11052   11055   11056   11054   11052   11055   11056
   11057   11061   11062   11063   11057   11061   11062   11064
   11057   11061   11062   11065   11057   11061   11071   11068
   11057   11061   11071   11072   11058   11057   11061   11062
   11058   11057   11061   11071   11059   11057   11061   11062
   11059   11057   11061   11071   11060   11057   11061   11062
   11060   11057   11061   11071   11061   11062   11065   11066
   11061   11062   11065   11067   11061   11062   11065   11068
   11061   11071   11068   11065   11061   11071   11068   11069
   11061   11071   11068   11070   11062   11061   11071   11068
   11062   11061   11071   11072   11062   11065   11068   11069
   11062   11065   11068   11070   11062   11065   11068   11071
   11063   11062   11061   11071   11063   11062   11065   11066
   11063   11062   11065   11067   11063   11062   11065   11068
   11064   11062   11061   11071   11064   11062   11065   11066
   11064   11062   11065   11067   11064   11062   11065   11068
   11065   11062   11061   11071   11065   11068   11071   11072
   11066   11065   11068   11069   11066   11065   11068   11070
   11066   11065   11068   11071   11067   11065   11068   11069
   11067   11065   11068   11070   11067   11065   11068   11071
   11069   11068   11071   11072   11070   11068   11071   11072
   11073   11077   11078   11079   11073   11077   11078   11080
   11073   11077   11078   11081   11073   11077   11087   11084
   11073   11077   11087   11088   11074   11073   11077   11078
   11074   11073   11077   11087   11075   11073   11077   11078
   11075   11073   11077   11087   11076   11073   11077   11078
   11076   11073   11077   11087   11077   11078   11081   11082
   11077   11078   11081   11083   11077   11078   11081   11084
   11077   11087   11084   11081   11077   11087   11084   11085
   11077   11087   11084   11086   11078   11077   11087   11084
   11078   11077   11087   11088   11078   11081   11084   11085
   11078   11081   11084   11086   11078   11081   11084   11087
   11079   11078   11077   11087   11079   11078   11081   11082
   11079   11078   11081   11083   11079   11078   11081   11084
   11080   11078   11077   11087   11080   11078   11081   11082
   11080   11078   11081   11083   11080   11078   11081   11084
   11081   11078   11077   11087   11081   11084   11087   11088
   11082   11081   11084   11085   11082   11081   11084   11086
   11082   11081   11084   11087   11083   11081   11084   11085
   11083   11081   11084   11086   11083   11081   11084   11087
   11085   11084   11087   11088   11086   11084   11087   11088
   11089   11093   11094   11095   11089   11093   11094   11096
   11089   11093   11094   11097   11089   11093   11103   11100
   11089   11093   11103   11104   11090   11089   11093   11094
   11090   11089   11093   11103   11091   11089   11093   11094
   11091   11089   11093   11103   11092   11089   11093   11094
   11092   11089   11093   11103   11093   11094   11097   11098
   11093   11094   11097   11099   11093   11094   11097   11100
   11093   11103   11100   11097   11093   11103   11100   11101
   11093   11103   11100   11102   11094   11093   11103   11100
   11094   11093   11103   11104   11094   11097   11100   11101
   11094   11097   11100   11102   11094   11097   11100   11103
   11095   11094   11093   11103   11095   11094   11097   11098
   11095   11094   11097   11099   11095   11094   11097   11100
   11096   11094   11093   11103   11096   11094   11097   11098
   11096   11094   11097   11099   11096   11094   11097   11100
   11097   11094   11093   11103   11097   11100   11103   11104
   11098   11097   11100   11101   11098   11097   11100   11102
   11098   11097   11100   11103   11099   11097   11100   11101
   11099   11097   11100   11102   11099   11097   11100   11103
   11101   11100   11103   11104   11102   11100   11103   11104
   11105   11109   11110   11111   11105   11109   11110   11112
   11105   11109   11110   11113   11105   11109   11119   11116
   11105   11109   11119   11120   11106   11105   11109   11110
   11106   11105   11109   11119   11107   11105   11109   11110
   11107   11105   11109   11119   11108   11105   11109   11110
   11108   11105   11109   11119   11109   11110   11113   11114
   11109   11110   11113   11115   11109   11110   11113   11116
   11109   11119   11116   11113   11109   11119   11116   11117
   11109   11119   11116   11118   11110   11109   11119   11116
   11110   11109   11119   11120   11110   11113   11116   11117
   11110   11113   11116   11118   11110   11113   11116   11119
   11111   11110   11109   11119   11111   11110   11113   11114
   11111   11110   11113   11115   11111   11110   11113   11116
   11112   11110   11109   11119   11112   11110   11113   11114
   11112   11110   11113   11115   11112   11110   11113   11116
   11113   11110   11109   11119   11113   11116   11119   11120
   11114   11113   11116   11117   11114   11113   11116   11118
   11114   11113   11116   11119   11115   11113   11116   11117
   11115   11113   11116   11118   11115   11113   11116   11119
   11117   11116   11119   11120   11118   11116   11119   11120
   11121   11125   11126   11127   11121   11125   11126   11128
   11121   11125   11126   11129   11121   11125   11135   11132
   11121   11125   11135   11136   11122   11121   11125   11126
   11122   11121   11125   11135   11123   11121   11125   11126
   11123   11121   11125   11135   11124   11121   11125   11126
   11124   11121   11125   11135   11125   11126   11129   11130
   11125   11126   11129   11131   11125   11126   11129   11132
   11125   11135   11132   11129   11125   11135   11132   11133
   11125   11135   11132   11134   11126   11125   11135   11132
   11126   11125   11135   11136   11126   11129   11132   11133
   11126   11129   11132   11134   11126   11129   11132   11135
   11127   11126   11125   11135   11127   11126   11129   11130
   11127   11126   11129   11131   11127   11126   11129   11132
   11128   11126   11125   11135   11128   11126   11129   11130
   11128   11126   11129   11131   11128   11126   11129   11132
   11129   11126   11125   11135   11129   11132   11135   11136
   11130   11129   11132   11133   11130   11129   11132   11134
   11130   11129   11132   11135   11131   11129   11132   11133
   11131   11129   11132   11134   11131   11129   11132   11135
   11133   11132   11135   11136   11134   11132   11135   11136
   11137   11141   11142   11143   11137   11141   11142   11144
   11137   11141   11142   11145   11137   11141   11151   11148
   11137   11141   11151   11152   11138   11137   11141   11142
   11138   11137   11141   11151   11139   11137   11141   11142
   11139   11137   11141   11151   11140   11137   11141   11142
   11140   11137   11141   11151   11141   11142   11145   11146
   11141   11142   11145   11147   11141   11142   11145   11148
   11141   11151   11148   11145   11141   11151   11148   11149
   11141   11151   11148   11150   11142   11141   11151   11148
   11142   11141   11151   11152   11142   11145   11148   11149
   11142   11145   11148   11150   11142   11145   11148   11151
   11143   11142   11141   11151   11143   11142   11145   11146
   11143   11142   11145   11147   11143   11142   11145   11148
   11144   11142   11141   11151   11144   11142   11145   11146
   11144   11142   11145   11147   11144   11142   11145   11148
   11145   11142   11141   11151   11145   11148   11151   11152
   11146   11145   11148   11149   11146   11145   11148   11150
   11146   11145   11148   11151   11147   11145   11148   11149
   11147   11145   11148   11150   11147   11145   11148   11151
   11149   11148   11151   11152   11150   11148   11151   11152
   11153   11157   11158   11159   11153   11157   11158   11160
   11153   11157   11158   11161   11153   11157   11167   11164
   11153   11157   11167   11168   11154   11153   11157   11158
   11154   11153   11157   11167   11155   11153   11157   11158
   11155   11153   11157   11167   11156   11153   11157   11158
   11156   11153   11157   11167   11157   11158   11161   11162
   11157   11158   11161   11163   11157   11158   11161   11164
   11157   11167   11164   11161   11157   11167   11164   11165
   11157   11167   11164   11166   11158   11157   11167   11164
   11158   11157   11167   11168   11158   11161   11164   11165
   11158   11161   11164   11166   11158   11161   11164   11167
   11159   11158   11157   11167   11159   11158   11161   11162
   11159   11158   11161   11163   11159   11158   11161   11164
   11160   11158   11157   11167   11160   11158   11161   11162
   11160   11158   11161   11163   11160   11158   11161   11164
   11161   11158   11157   11167   11161   11164   11167   11168
   11162   11161   11164   11165   11162   11161   11164   11166
   11162   11161   11164   11167   11163   11161   11164   11165
   11163   11161   11164   11166   11163   11161   11164   11167
   11165   11164   11167   11168   11166   11164   11167   11168
   11169   11173   11174   11175   11169   11173   11174   11176
   11169   11173   11174   11177   11169   11173   11183   11180
   11169   11173   11183   11184   11170   11169   11173   11174
   11170   11169   11173   11183   11171   11169   11173   11174
   11171   11169   11173   11183   11172   11169   11173   11174
   11172   11169   11173   11183   11173   11174   11177   11178
   11173   11174   11177   11179   11173   11174   11177   11180
   11173   11183   11180   11177   11173   11183   11180   11181
   11173   11183   11180   11182   11174   11173   11183   11180
   11174   11173   11183   11184   11174   11177   11180   11181
   11174   11177   11180   11182   11174   11177   11180   11183
   11175   11174   11173   11183   11175   11174   11177   11178
   11175   11174   11177   11179   11175   11174   11177   11180
   11176   11174   11173   11183   11176   11174   11177   11178
   11176   11174   11177   11179   11176   11174   11177   11180
   11177   11174   11173   11183   11177   11180   11183   11184
   11178   11177   11180   11181   11178   11177   11180   11182
   11178   11177   11180   11183   11179   11177   11180   11181
   11179   11177   11180   11182   11179   11177   11180   11183
   11181   11180   11183   11184   11182   11180   11183   11184
   11185   11189   11190   11191   11185   11189   11190   11192
   11185   11189   11190   11193   11185   11189   11199   11196
   11185   11189   11199   11200   11186   11185   11189   11190
   11186   11185   11189   11199   11187   11185   11189   11190
   11187   11185   11189   11199   11188   11185   11189   11190
   11188   11185   11189   11199   11189   11190   11193   11194
   11189   11190   11193   11195   11189   11190   11193   11196
   11189   11199   11196   11193   11189   11199   11196   11197
   11189   11199   11196   11198   11190   11189   11199   11196
   11190   11189   11199   11200   11190   11193   11196   11197
   11190   11193   11196   11198   11190   11193   11196   11199
   11191   11190   11189   11199   11191   11190   11193   11194
   11191   11190   11193   11195   11191   11190   11193   11196
   11192   11190   11189   11199   11192   11190   11193   11194
   11192   11190   11193   11195   11192   11190   11193   11196
   11193   11190   11189   11199   11193   11196   11199   11200
   11194   11193   11196   11197   11194   11193   11196   11198
   11194   11193   11196   11199   11195   11193   11196   11197
   11195   11193   11196   11198   11195   11193   11196   11199
   11197   11196   11199   11200   11198   11196   11199   11200
   11201   11205   11206   11207   11201   11205   11206   11208
   11201   11205   11206   11209   11201   11205   11215   11212
   11201   11205   11215   11216   11202   11201   11205   11206
   11202   11201   11205   11215   11203   11201   11205   11206
   11203   11201   11205   11215   11204   11201   11205   11206
   11204   11201   11205   11215   11205   11206   11209   11210
   11205   11206   11209   11211   11205   11206   11209   11212
   11205   11215   11212   11209   11205   11215   11212   11213
   11205   11215   11212   11214   11206   11205   11215   11212
   11206   11205   11215   11216   11206   11209   11212   11213
   11206   11209   11212   11214   11206   11209   11212   11215
   11207   11206   11205   11215   11207   11206   11209   11210
   11207   11206   11209   11211   11207   11206   11209   11212
   11208   11206   11205   11215   11208   11206   11209   11210
   11208   11206   11209   11211   11208   11206   11209   11212
   11209   11206   11205   11215   11209   11212   11215   11216
   11210   11209   11212   11213   11210   11209   11212   11214
   11210   11209   11212   11215   11211   11209   11212   11213
   11211   11209   11212   11214   11211   11209   11212   11215
   11213   11212   11215   11216   11214   11212   11215   11216
   11217   11221   11222   11223   11217   11221   11222   11224
   11217   11221   11222   11225   11217   11221   11231   11228
   11217   11221   11231   11232   11218   11217   11221   11222
   11218   11217   11221   11231   11219   11217   11221   11222
   11219   11217   11221   11231   11220   11217   11221   11222
   11220   11217   11221   11231   11221   11222   11225   11226
   11221   11222   11225   11227   11221   11222   11225   11228
   11221   11231   11228   11225   11221   11231   11228   11229
   11221   11231   11228   11230   11222   11221   11231   11228
   11222   11221   11231   11232   11222   11225   11228   11229
   11222   11225   11228   11230   11222   11225   11228   11231
   11223   11222   11221   11231   11223   11222   11225   11226
   11223   11222   11225   11227   11223   11222   11225   11228
   11224   11222   11221   11231   11224   11222   11225   11226
   11224   11222   11225   11227   11224   11222   11225   11228
   11225   11222   11221   11231   11225   11228   11231   11232
   11226   11225   11228   11229   11226   11225   11228   11230
   11226   11225   11228   11231   11227   11225   11228   11229
   11227   11225   11228   11230   11227   11225   11228   11231
   11229   11228   11231   11232   11230   11228   11231   11232
   11233   11237   11238   11239   11233   11237   11238   11240
   11233   11237   11238   11241   11233   11237   11247   11244
   11233   11237   11247   11248   11234   11233   11237   11238
   11234   11233   11237   11247   11235   11233   11237   11238
   11235   11233   11237   11247   11236   11233   11237   11238
   11236   11233   11237   11247   11237   11238   11241   11242
   11237   11238   11241   11243   11237   11238   11241   11244
   11237   11247   11244   11241   11237   11247   11244   11245
   11237   11247   11244   11246   11238   11237   11247   11244
   11238   11237   11247   11248   11238   11241   11244   11245
   11238   11241   11244   11246   11238   11241   11244   11247
   11239   11238   11237   11247   11239   11238   11241   11242
   11239   11238   11241   11243   11239   11238   11241   11244
   11240   11238   11237   11247   11240   11238   11241   11242
   11240   11238   11241   11243   11240   11238   11241   11244
   11241   11238   11237   11247   11241   11244   11247   11248
   11242   11241   11244   11245   11242   11241   11244   11246
   11242   11241   11244   11247   11243   11241   11244   11245
   11243   11241   11244   11246   11243   11241   11244   11247
   11245   11244   11247   11248   11246   11244   11247   11248
   11249   11253   11254   11255   11249   11253   11254   11256
   11249   11253   11254   11257   11249   11253   11263   11260
   11249   11253   11263   11264   11250   11249   11253   11254
   11250   11249   11253   11263   11251   11249   11253   11254
   11251   11249   11253   11263   11252   11249   11253   11254
   11252   11249   11253   11263   11253   11254   11257   11258
   11253   11254   11257   11259   11253   11254   11257   11260
   11253   11263   11260   11257   11253   11263   11260   11261
   11253   11263   11260   11262   11254   11253   11263   11260
   11254   11253   11263   11264   11254   11257   11260   11261
   11254   11257   11260   11262   11254   11257   11260   11263
   11255   11254   11253   11263   11255   11254   11257   11258
   11255   11254   11257   11259   11255   11254   11257   11260
   11256   11254   11253   11263   11256   11254   11257   11258
   11256   11254   11257   11259   11256   11254   11257   11260
   11257   11254   11253   11263   11257   11260   11263   11264
   11258   11257   11260   11261   11258   11257   11260   11262
   11258   11257   11260   11263   11259   11257   11260   11261
   11259   11257   11260   11262   11259   11257   11260   11263
   11261   11260   11263   11264   11262   11260   11263   11264
   11265   11269   11270   11271   11265   11269   11270   11272
   11265   11269   11270   11273   11265   11269   11279   11276
   11265   11269   11279   11280   11266   11265   11269   11270
   11266   11265   11269   11279   11267   11265   11269   11270
   11267   11265   11269   11279   11268   11265   11269   11270
   11268   11265   11269   11279   11269   11270   11273   11274
   11269   11270   11273   11275   11269   11270   11273   11276
   11269   11279   11276   11273   11269   11279   11276   11277
   11269   11279   11276   11278   11270   11269   11279   11276
   11270   11269   11279   11280   11270   11273   11276   11277
   11270   11273   11276   11278   11270   11273   11276   11279
   11271   11270   11269   11279   11271   11270   11273   11274
   11271   11270   11273   11275   11271   11270   11273   11276
   11272   11270   11269   11279   11272   11270   11273   11274
   11272   11270   11273   11275   11272   11270   11273   11276
   11273   11270   11269   11279   11273   11276   11279   11280
   11274   11273   11276   11277   11274   11273   11276   11278
   11274   11273   11276   11279   11275   11273   11276   11277
   11275   11273   11276   11278   11275   11273   11276   11279
   11277   11276   11279   11280   11278   11276   11279   11280
   11281   11285   11286   11287   11281   11285   11286   11288
   11281   11285   11286   11289   11281   11285   11295   11292
   11281   11285   11295   11296   11282   11281   11285   11286
   11282   11281   11285   11295   11283   11281   11285   11286
   11283   11281   11285   11295   11284   11281   11285   11286
   11284   11281   11285   11295   11285   11286   11289   11290
   11285   11286   11289   11291   11285   11286   11289   11292
   11285   11295   11292   11289   11285   11295   11292   11293
   11285   11295   11292   11294   11286   11285   11295   11292
   11286   11285   11295   11296   11286   11289   11292   11293
   11286   11289   11292   11294   11286   11289   11292   11295
   11287   11286   11285   11295   11287   11286   11289   11290
   11287   11286   11289   11291   11287   11286   11289   11292
   11288   11286   11285   11295   11288   11286   11289   11290
   11288   11286   11289   11291   11288   11286   11289   11292
   11289   11286   11285   11295   11289   11292   11295   11296
   11290   11289   11292   11293   11290   11289   11292   11294
   11290   11289   11292   11295   11291   11289   11292   11293
   11291   11289   11292   11294   11291   11289   11292   11295
   11293   11292   11295   11296   11294   11292   11295   11296
   11297   11301   11302   11303   11297   11301   11302   11304
   11297   11301   11302   11305   11297   11301   11311   11308
   11297   11301   11311   11312   11298   11297   11301   11302
   11298   11297   11301   11311   11299   11297   11301   11302
   11299   11297   11301   11311   11300   11297   11301   11302
   11300   11297   11301   11311   11301   11302   11305   11306
   11301   11302   11305   11307   11301   11302   11305   11308
   11301   11311   11308   11305   11301   11311   11308   11309
   11301   11311   11308   11310   11302   11301   11311   11308
   11302   11301   11311   11312   11302   11305   11308   11309
   11302   11305   11308   11310   11302   11305   11308   11311
   11303   11302   11301   11311   11303   11302   11305   11306
   11303   11302   11305   11307   11303   11302   11305   11308
   11304   11302   11301   11311   11304   11302   11305   11306
   11304   11302   11305   11307   11304   11302   11305   11308
   11305   11302   11301   11311   11305   11308   11311   11312
   11306   11305   11308   11309   11306   11305   11308   11310
   11306   11305   11308   11311   11307   11305   11308   11309
   11307   11305   11308   11310   11307   11305   11308   11311
   11309   11308   11311   11312   11310   11308   11311   11312
   11313   11317   11318   11319   11313   11317   11318   11320
   11313   11317   11318   11321   11313   11317   11327   11324
   11313   11317   11327   11328   11314   11313   11317   11318
   11314   11313   11317   11327   11315   11313   11317   11318
   11315   11313   11317   11327   11316   11313   11317   11318
   11316   11313   11317   11327   11317   11318   11321   11322
   11317   11318   11321   11323   11317   11318   11321   11324
   11317   11327   11324   11321   11317   11327   11324   11325
   11317   11327   11324   11326   11318   11317   11327   11324
   11318   11317   11327   11328   11318   11321   11324   11325
   11318   11321   11324   11326   11318   11321   11324   11327
   11319   11318   11317   11327   11319   11318   11321   11322
   11319   11318   11321   11323   11319   11318   11321   11324
   11320   11318   11317   11327   11320   11318   11321   11322
   11320   11318   11321   11323   11320   11318   11321   11324
   11321   11318   11317   11327   11321   11324   11327   11328
   11322   11321   11324   11325   11322   11321   11324   11326
   11322   11321   11324   11327   11323   11321   11324   11325
   11323   11321   11324   11326   11323   11321   11324   11327
   11325   11324   11327   11328   11326   11324   11327   11328
   11329   11333   11334   11335   11329   11333   11334   11336
   11329   11333   11334   11337   11329   11333   11343   11340
   11329   11333   11343   11344   11330   11329   11333   11334
   11330   11329   11333   11343   11331   11329   11333   11334
   11331   11329   11333   11343   11332   11329   11333   11334
   11332   11329   11333   11343   11333   11334   11337   11338
   11333   11334   11337   11339   11333   11334   11337   11340
   11333   11343   11340   11337   11333   11343   11340   11341
   11333   11343   11340   11342   11334   11333   11343   11340
   11334   11333   11343   11344   11334   11337   11340   11341
   11334   11337   11340   11342   11334   11337   11340   11343
   11335   11334   11333   11343   11335   11334   11337   11338
   11335   11334   11337   11339   11335   11334   11337   11340
   11336   11334   11333   11343   11336   11334   11337   11338
   11336   11334   11337   11339   11336   11334   11337   11340
   11337   11334   11333   11343   11337   11340   11343   11344
   11338   11337   11340   11341   11338   11337   11340   11342
   11338   11337   11340   11343   11339   11337   11340   11341
   11339   11337   11340   11342   11339   11337   11340   11343
   11341   11340   11343   11344   11342   11340   11343   11344
   11345   11349   11350   11351   11345   11349   11350   11352
   11345   11349   11350   11353   11345   11349   11359   11356
   11345   11349   11359   11360   11346   11345   11349   11350
   11346   11345   11349   11359   11347   11345   11349   11350
   11347   11345   11349   11359   11348   11345   11349   11350
   11348   11345   11349   11359   11349   11350   11353   11354
   11349   11350   11353   11355   11349   11350   11353   11356
   11349   11359   11356   11353   11349   11359   11356   11357
   11349   11359   11356   11358   11350   11349   11359   11356
   11350   11349   11359   11360   11350   11353   11356   11357
   11350   11353   11356   11358   11350   11353   11356   11359
   11351   11350   11349   11359   11351   11350   11353   11354
   11351   11350   11353   11355   11351   11350   11353   11356
   11352   11350   11349   11359   11352   11350   11353   11354
   11352   11350   11353   11355   11352   11350   11353   11356
   11353   11350   11349   11359   11353   11356   11359   11360
   11354   11353   11356   11357   11354   11353   11356   11358
   11354   11353   11356   11359   11355   11353   11356   11357
   11355   11353   11356   11358   11355   11353   11356   11359
   11357   11356   11359   11360   11358   11356   11359   11360
   11361   11365   11366   11367   11361   11365   11366   11368
   11361   11365   11366   11369   11361   11365   11375   11372
   11361   11365   11375   11376   11362   11361   11365   11366
   11362   11361   11365   11375   11363   11361   11365   11366
   11363   11361   11365   11375   11364   11361   11365   11366
   11364   11361   11365   11375   11365   11366   11369   11370
   11365   11366   11369   11371   11365   11366   11369   11372
   11365   11375   11372   11369   11365   11375   11372   11373
   11365   11375   11372   11374   11366   11365   11375   11372
   11366   11365   11375   11376   11366   11369   11372   11373
   11366   11369   11372   11374   11366   11369   11372   11375
   11367   11366   11365   11375   11367   11366   11369   11370
   11367   11366   11369   11371   11367   11366   11369   11372
   11368   11366   11365   11375   11368   11366   11369   11370
   11368   11366   11369   11371   11368   11366   11369   11372
   11369   11366   11365   11375   11369   11372   11375   11376
   11370   11369   11372   11373   11370   11369   11372   11374
   11370   11369   11372   11375   11371   11369   11372   11373
   11371   11369   11372   11374   11371   11369   11372   11375
   11373   11372   11375   11376   11374   11372   11375   11376
   11377   11381   11382   11383   11377   11381   11382   11384
   11377   11381   11382   11385   11377   11381   11391   11388
   11377   11381   11391   11392   11378   11377   11381   11382
   11378   11377   11381   11391   11379   11377   11381   11382
   11379   11377   11381   11391   11380   11377   11381   11382
   11380   11377   11381   11391   11381   11382   11385   11386
   11381   11382   11385   11387   11381   11382   11385   11388
   11381   11391   11388   11385   11381   11391   11388   11389
   11381   11391   11388   11390   11382   11381   11391   11388
   11382   11381   11391   11392   11382   11385   11388   11389
   11382   11385   11388   11390   11382   11385   11388   11391
   11383   11382   11381   11391   11383   11382   11385   11386
   11383   11382   11385   11387   11383   11382   11385   11388
   11384   11382   11381   11391   11384   11382   11385   11386
   11384   11382   11385   11387   11384   11382   11385   11388
   11385   11382   11381   11391   11385   11388   11391   11392
   11386   11385   11388   11389   11386   11385   11388   11390
   11386   11385   11388   11391   11387   11385   11388   11389
   11387   11385   11388   11390   11387   11385   11388   11391
   11389   11388   11391   11392   11390   11388   11391   11392
   11393   11397   11398   11399   11393   11397   11398   11400
   11393   11397   11398   11401   11393   11397   11407   11404
   11393   11397   11407   11408   11394   11393   11397   11398
   11394   11393   11397   11407   11395   11393   11397   11398
   11395   11393   11397   11407   11396   11393   11397   11398
   11396   11393   11397   11407   11397   11398   11401   11402
   11397   11398   11401   11403   11397   11398   11401   11404
   11397   11407   11404   11401   11397   11407   11404   11405
   11397   11407   11404   11406   11398   11397   11407   11404
   11398   11397   11407   11408   11398   11401   11404   11405
   11398   11401   11404   11406   11398   11401   11404   11407
   11399   11398   11397   11407   11399   11398   11401   11402
   11399   11398   11401   11403   11399   11398   11401   11404
   11400   11398   11397   11407   11400   11398   11401   11402
   11400   11398   11401   11403   11400   11398   11401   11404
   11401   11398   11397   11407   11401   11404   11407   11408
   11402   11401   11404   11405   11402   11401   11404   11406
   11402   11401   11404   11407   11403   11401   11404   11405
   11403   11401   11404   11406   11403   11401   11404   11407
   11405   11404   11407   11408   11406   11404   11407   11408
   11409   11413   11414   11415   11409   11413   11414   11416
   11409   11413   11414   11417   11409   11413   11423   11420
   11409   11413   11423   11424   11410   11409   11413   11414
   11410   11409   11413   11423   11411   11409   11413   11414
   11411   11409   11413   11423   11412   11409   11413   11414
   11412   11409   11413   11423   11413   11414   11417   11418
   11413   11414   11417   11419   11413   11414   11417   11420
   11413   11423   11420   11417   11413   11423   11420   11421
   11413   11423   11420   11422   11414   11413   11423   11420
   11414   11413   11423   11424   11414   11417   11420   11421
   11414   11417   11420   11422   11414   11417   11420   11423
   11415   11414   11413   11423   11415   11414   11417   11418
   11415   11414   11417   11419   11415   11414   11417   11420
   11416   11414   11413   11423   11416   11414   11417   11418
   11416   11414   11417   11419   11416   11414   11417   11420
   11417   11414   11413   11423   11417   11420   11423   11424
   11418   11417   11420   11421   11418   11417   11420   11422
   11418   11417   11420   11423   11419   11417   11420   11421
   11419   11417   11420   11422   11419   11417   11420   11423
   11421   11420   11423   11424   11422   11420   11423   11424
   11425   11429   11430   11431   11425   11429   11430   11432
   11425   11429   11430   11433   11425   11429   11439   11436
   11425   11429   11439   11440   11426   11425   11429   11430
   11426   11425   11429   11439   11427   11425   11429   11430
   11427   11425   11429   11439   11428   11425   11429   11430
   11428   11425   11429   11439   11429   11430   11433   11434
   11429   11430   11433   11435   11429   11430   11433   11436
   11429   11439   11436   11433   11429   11439   11436   11437
   11429   11439   11436   11438   11430   11429   11439   11436
   11430   11429   11439   11440   11430   11433   11436   11437
   11430   11433   11436   11438   11430   11433   11436   11439
   11431   11430   11429   11439   11431   11430   11433   11434
   11431   11430   11433   11435   11431   11430   11433   11436
   11432   11430   11429   11439   11432   11430   11433   11434
   11432   11430   11433   11435   11432   11430   11433   11436
   11433   11430   11429   11439   11433   11436   11439   11440
   11434   11433   11436   11437   11434   11433   11436   11438
   11434   11433   11436   11439   11435   11433   11436   11437
   11435   11433   11436   11438   11435   11433   11436   11439
   11437   11436   11439   11440   11438   11436   11439   11440
   11441   11445   11446   11447   11441   11445   11446   11448
   11441   11445   11446   11449   11441   11445   11455   11452
   11441   11445   11455   11456   11442   11441   11445   11446
   11442   11441   11445   11455   11443   11441   11445   11446
   11443   11441   11445   11455   11444   11441   11445   11446
   11444   11441   11445   11455   11445   11446   11449   11450
   11445   11446   11449   11451   11445   11446   11449   11452
   11445   11455   11452   11449   11445   11455   11452   11453
   11445   11455   11452   11454   11446   11445   11455   11452
   11446   11445   11455   11456   11446   11449   11452   11453
   11446   11449   11452   11454   11446   11449   11452   11455
   11447   11446   11445   11455   11447   11446   11449   11450
   11447   11446   11449   11451   11447   11446   11449   11452
   11448   11446   11445   11455   11448   11446   11449   11450
   11448   11446   11449   11451   11448   11446   11449   11452
   11449   11446   11445   11455   11449   11452   11455   11456
   11450   11449   11452   11453   11450   11449   11452   11454
   11450   11449   11452   11455   11451   11449   11452   11453
   11451   11449   11452   11454   11451   11449   11452   11455
   11453   11452   11455   11456   11454   11452   11455   11456
   11457   11461   11462   11463   11457   11461   11462   11464
   11457   11461   11462   11465   11457   11461   11471   11468
   11457   11461   11471   11472   11458   11457   11461   11462
   11458   11457   11461   11471   11459   11457   11461   11462
   11459   11457   11461   11471   11460   11457   11461   11462
   11460   11457   11461   11471   11461   11462   11465   11466
   11461   11462   11465   11467   11461   11462   11465   11468
   11461   11471   11468   11465   11461   11471   11468   11469
   11461   11471   11468   11470   11462   11461   11471   11468
   11462   11461   11471   11472   11462   11465   11468   11469
   11462   11465   11468   11470   11462   11465   11468   11471
   11463   11462   11461   11471   11463   11462   11465   11466
   11463   11462   11465   11467   11463   11462   11465   11468
   11464   11462   11461   11471   11464   11462   11465   11466
   11464   11462   11465   11467   11464   11462   11465   11468
   11465   11462   11461   11471   11465   11468   11471   11472
   11466   11465   11468   11469   11466   11465   11468   11470
   11466   11465   11468   11471   11467   11465   11468   11469
   11467   11465   11468   11470   11467   11465   11468   11471
   11469   11468   11471   11472   11470   11468   11471   11472
   11473   11477   11478   11479   11473   11477   11478   11480
   11473   11477   11478   11481   11473   11477   11487   11484
   11473   11477   11487   11488   11474   11473   11477   11478
   11474   11473   11477   11487   11475   11473   11477   11478
   11475   11473   11477   11487   11476   11473   11477   11478
   11476   11473   11477   11487   11477   11478   11481   11482
   11477   11478   11481   11483   11477   11478   11481   11484
   11477   11487   11484   11481   11477   11487   11484   11485
   11477   11487   11484   11486   11478   11477   11487   11484
   11478   11477   11487   11488   11478   11481   11484   11485
   11478   11481   11484   11486   11478   11481   11484   11487
   11479   11478   11477   11487   11479   11478   11481   11482
   11479   11478   11481   11483   11479   11478   11481   11484
   11480   11478   11477   11487   11480   11478   11481   11482
   11480   11478   11481   11483   11480   11478   11481   11484
   11481   11478   11477   11487   11481   11484   11487   11488
   11482   11481   11484   11485   11482   11481   11484   11486
   11482   11481   11484   11487   11483   11481   11484   11485
   11483   11481   11484   11486   11483   11481   11484   11487
   11485   11484   11487   11488   11486   11484   11487   11488
   11489   11493   11494   11495   11489   11493   11494   11496
   11489   11493   11494   11497   11489   11493   11503   11500
   11489   11493   11503   11504   11490   11489   11493   11494
   11490   11489   11493   11503   11491   11489   11493   11494
   11491   11489   11493   11503   11492   11489   11493   11494
   11492   11489   11493   11503   11493   11494   11497   11498
   11493   11494   11497   11499   11493   11494   11497   11500
   11493   11503   11500   11497   11493   11503   11500   11501
   11493   11503   11500   11502   11494   11493   11503   11500
   11494   11493   11503   11504   11494   11497   11500   11501
   11494   11497   11500   11502   11494   11497   11500   11503
   11495   11494   11493   11503   11495   11494   11497   11498
   11495   11494   11497   11499   11495   11494   11497   11500
   11496   11494   11493   11503   11496   11494   11497   11498
   11496   11494   11497   11499   11496   11494   11497   11500
   11497   11494   11493   11503   11497   11500   11503   11504
   11498   11497   11500   11501   11498   11497   11500   11502
   11498   11497   11500   11503   11499   11497   11500   11501
   11499   11497   11500   11502   11499   11497   11500   11503
   11501   11500   11503   11504   11502   11500   11503   11504
   11505   11509   11510   11511   11505   11509   11510   11512
   11505   11509   11510   11513   11505   11509   11519   11516
   11505   11509   11519   11520   11506   11505   11509   11510
   11506   11505   11509   11519   11507   11505   11509   11510
   11507   11505   11509   11519   11508   11505   11509   11510
   11508   11505   11509   11519   11509   11510   11513   11514
   11509   11510   11513   11515   11509   11510   11513   11516
   11509   11519   11516   11513   11509   11519   11516   11517
   11509   11519   11516   11518   11510   11509   11519   11516
   11510   11509   11519   11520   11510   11513   11516   11517
   11510   11513   11516   11518   11510   11513   11516   11519
   11511   11510   11509   11519   11511   11510   11513   11514
   11511   11510   11513   11515   11511   11510   11513   11516
   11512   11510   11509   11519   11512   11510   11513   11514
   11512   11510   11513   11515   11512   11510   11513   11516
   11513   11510   11509   11519   11513   11516   11519   11520
   11514   11513   11516   11517   11514   11513   11516   11518
   11514   11513   11516   11519   11515   11513   11516   11517
   11515   11513   11516   11518   11515   11513   11516   11519
   11517   11516   11519   11520   11518   11516   11519   11520
   11521   11525   11526   11527   11521   11525   11526   11528
   11521   11525   11526   11529   11521   11525   11535   11532
   11521   11525   11535   11536   11522   11521   11525   11526
   11522   11521   11525   11535   11523   11521   11525   11526
   11523   11521   11525   11535   11524   11521   11525   11526
   11524   11521   11525   11535   11525   11526   11529   11530
   11525   11526   11529   11531   11525   11526   11529   11532
   11525   11535   11532   11529   11525   11535   11532   11533
   11525   11535   11532   11534   11526   11525   11535   11532
   11526   11525   11535   11536   11526   11529   11532   11533
   11526   11529   11532   11534   11526   11529   11532   11535
   11527   11526   11525   11535   11527   11526   11529   11530
   11527   11526   11529   11531   11527   11526   11529   11532
   11528   11526   11525   11535   11528   11526   11529   11530
   11528   11526   11529   11531   11528   11526   11529   11532
   11529   11526   11525   11535   11529   11532   11535   11536
   11530   11529   11532   11533   11530   11529   11532   11534
   11530   11529   11532   11535   11531   11529   11532   11533
   11531   11529   11532   11534   11531   11529   11532   11535
   11533   11532   11535   11536   11534   11532   11535   11536
   11537   11541   11542   11543   11537   11541   11542   11544
   11537   11541   11542   11545   11537   11541   11551   11548
   11537   11541   11551   11552   11538   11537   11541   11542
   11538   11537   11541   11551   11539   11537   11541   11542
   11539   11537   11541   11551   11540   11537   11541   11542
   11540   11537   11541   11551   11541   11542   11545   11546
   11541   11542   11545   11547   11541   11542   11545   11548
   11541   11551   11548   11545   11541   11551   11548   11549
   11541   11551   11548   11550   11542   11541   11551   11548
   11542   11541   11551   11552   11542   11545   11548   11549
   11542   11545   11548   11550   11542   11545   11548   11551
   11543   11542   11541   11551   11543   11542   11545   11546
   11543   11542   11545   11547   11543   11542   11545   11548
   11544   11542   11541   11551   11544   11542   11545   11546
   11544   11542   11545   11547   11544   11542   11545   11548
   11545   11542   11541   11551   11545   11548   11551   11552
   11546   11545   11548   11549   11546   11545   11548   11550
   11546   11545   11548   11551   11547   11545   11548   11549
   11547   11545   11548   11550   11547   11545   11548   11551
   11549   11548   11551   11552   11550   11548   11551   11552
   11553   11557   11558   11559   11553   11557   11558   11560
   11553   11557   11558   11561   11553   11557   11567   11564
   11553   11557   11567   11568   11554   11553   11557   11558
   11554   11553   11557   11567   11555   11553   11557   11558
   11555   11553   11557   11567   11556   11553   11557   11558
   11556   11553   11557   11567   11557   11558   11561   11562
   11557   11558   11561   11563   11557   11558   11561   11564
   11557   11567   11564   11561   11557   11567   11564   11565
   11557   11567   11564   11566   11558   11557   11567   11564
   11558   11557   11567   11568   11558   11561   11564   11565
   11558   11561   11564   11566   11558   11561   11564   11567
   11559   11558   11557   11567   11559   11558   11561   11562
   11559   11558   11561   11563   11559   11558   11561   11564
   11560   11558   11557   11567   11560   11558   11561   11562
   11560   11558   11561   11563   11560   11558   11561   11564
   11561   11558   11557   11567   11561   11564   11567   11568
   11562   11561   11564   11565   11562   11561   11564   11566
   11562   11561   11564   11567   11563   11561   11564   11565
   11563   11561   11564   11566   11563   11561   11564   11567
   11565   11564   11567   11568   11566   11564   11567   11568
   11569   11573   11574   11575   11569   11573   11574   11576
   11569   11573   11574   11577   11569   11573   11583   11580
   11569   11573   11583   11584   11570   11569   11573   11574
   11570   11569   11573   11583   11571   11569   11573   11574
   11571   11569   11573   11583   11572   11569   11573   11574
   11572   11569   11573   11583   11573   11574   11577   11578
   11573   11574   11577   11579   11573   11574   11577   11580
   11573   11583   11580   11577   11573   11583   11580   11581
   11573   11583   11580   11582   11574   11573   11583   11580
   11574   11573   11583   11584   11574   11577   11580   11581
   11574   11577   11580   11582   11574   11577   11580   11583
   11575   11574   11573   11583   11575   11574   11577   11578
   11575   11574   11577   11579   11575   11574   11577   11580
   11576   11574   11573   11583   11576   11574   11577   11578
   11576   11574   11577   11579   11576   11574   11577   11580
   11577   11574   11573   11583   11577   11580   11583   11584
   11578   11577   11580   11581   11578   11577   11580   11582
   11578   11577   11580   11583   11579   11577   11580   11581
   11579   11577   11580   11582   11579   11577   11580   11583
   11581   11580   11583   11584   11582   11580   11583   11584
   11585   11589   11590   11591   11585   11589   11590   11592
   11585   11589   11590   11593   11585   11589   11599   11596
   11585   11589   11599   11600   11586   11585   11589   11590
   11586   11585   11589   11599   11587   11585   11589   11590
   11587   11585   11589   11599   11588   11585   11589   11590
   11588   11585   11589   11599   11589   11590   11593   11594
   11589   11590   11593   11595   11589   11590   11593   11596
   11589   11599   11596   11593   11589   11599   11596   11597
   11589   11599   11596   11598   11590   11589   11599   11596
   11590   11589   11599   11600   11590   11593   11596   11597
   11590   11593   11596   11598   11590   11593   11596   11599
   11591   11590   11589   11599   11591   11590   11593   11594
   11591   11590   11593   11595   11591   11590   11593   11596
   11592   11590   11589   11599   11592   11590   11593   11594
   11592   11590   11593   11595   11592   11590   11593   11596
   11593   11590   11589   11599   11593   11596   11599   11600
   11594   11593   11596   11597   11594   11593   11596   11598
   11594   11593   11596   11599   11595   11593   11596   11597
   11595   11593   11596   11598   11595   11593   11596   11599
   11597   11596   11599   11600   11598   11596   11599   11600
   11601   11605   11606   11607   11601   11605   11606   11608
   11601   11605   11606   11609   11601   11605   11615   11612
   11601   11605   11615   11616   11602   11601   11605   11606
   11602   11601   11605   11615   11603   11601   11605   11606
   11603   11601   11605   11615   11604   11601   11605   11606
   11604   11601   11605   11615   11605   11606   11609   11610
   11605   11606   11609   11611   11605   11606   11609   11612
   11605   11615   11612   11609   11605   11615   11612   11613
   11605   11615   11612   11614   11606   11605   11615   11612
   11606   11605   11615   11616   11606   11609   11612   11613
   11606   11609   11612   11614   11606   11609   11612   11615
   11607   11606   11605   11615   11607   11606   11609   11610
   11607   11606   11609   11611   11607   11606   11609   11612
   11608   11606   11605   11615   11608   11606   11609   11610
   11608   11606   11609   11611   11608   11606   11609   11612
   11609   11606   11605   11615   11609   11612   11615   11616
   11610   11609   11612   11613   11610   11609   11612   11614
   11610   11609   11612   11615   11611   11609   11612   11613
   11611   11609   11612   11614   11611   11609   11612   11615
   11613   11612   11615   11616   11614   11612   11615   11616
   11617   11621   11622   11623   11617   11621   11622   11624
   11617   11621   11622   11625   11617   11621   11631   11628
   11617   11621   11631   11632   11618   11617   11621   11622
   11618   11617   11621   11631   11619   11617   11621   11622
   11619   11617   11621   11631   11620   11617   11621   11622
   11620   11617   11621   11631   11621   11622   11625   11626
   11621   11622   11625   11627   11621   11622   11625   11628
   11621   11631   11628   11625   11621   11631   11628   11629
   11621   11631   11628   11630   11622   11621   11631   11628
   11622   11621   11631   11632   11622   11625   11628   11629
   11622   11625   11628   11630   11622   11625   11628   11631
   11623   11622   11621   11631   11623   11622   11625   11626
   11623   11622   11625   11627   11623   11622   11625   11628
   11624   11622   11621   11631   11624   11622   11625   11626
   11624   11622   11625   11627   11624   11622   11625   11628
   11625   11622   11621   11631   11625   11628   11631   11632
   11626   11625   11628   11629   11626   11625   11628   11630
   11626   11625   11628   11631   11627   11625   11628   11629
   11627   11625   11628   11630   11627   11625   11628   11631
   11629   11628   11631   11632   11630   11628   11631   11632
   11633   11637   11638   11639   11633   11637   11638   11640
   11633   11637   11638   11641   11633   11637   11647   11644
   11633   11637   11647   11648   11634   11633   11637   11638
   11634   11633   11637   11647   11635   11633   11637   11638
   11635   11633   11637   11647   11636   11633   11637   11638
   11636   11633   11637   11647   11637   11638   11641   11642
   11637   11638   11641   11643   11637   11638   11641   11644
   11637   11647   11644   11641   11637   11647   11644   11645
   11637   11647   11644   11646   11638   11637   11647   11644
   11638   11637   11647   11648   11638   11641   11644   11645
   11638   11641   11644   11646   11638   11641   11644   11647
   11639   11638   11637   11647   11639   11638   11641   11642
   11639   11638   11641   11643   11639   11638   11641   11644
   11640   11638   11637   11647   11640   11638   11641   11642
   11640   11638   11641   11643   11640   11638   11641   11644
   11641   11638   11637   11647   11641   11644   11647   11648
   11642   11641   11644   11645   11642   11641   11644   11646
   11642   11641   11644   11647   11643   11641   11644   11645
   11643   11641   11644   11646   11643   11641   11644   11647
   11645   11644   11647   11648   11646   11644   11647   11648
   11649   11653   11654   11655   11649   11653   11654   11656
   11649   11653   11654   11657   11649   11653   11663   11660
   11649   11653   11663   11664   11650   11649   11653   11654
   11650   11649   11653   11663   11651   11649   11653   11654
   11651   11649   11653   11663   11652   11649   11653   11654
   11652   11649   11653   11663   11653   11654   11657   11658
   11653   11654   11657   11659   11653   11654   11657   11660
   11653   11663   11660   11657   11653   11663   11660   11661
   11653   11663   11660   11662   11654   11653   11663   11660
   11654   11653   11663   11664   11654   11657   11660   11661
   11654   11657   11660   11662   11654   11657   11660   11663
   11655   11654   11653   11663   11655   11654   11657   11658
   11655   11654   11657   11659   11655   11654   11657   11660
   11656   11654   11653   11663   11656   11654   11657   11658
   11656   11654   11657   11659   11656   11654   11657   11660
   11657   11654   11653   11663   11657   11660   11663   11664
   11658   11657   11660   11661   11658   11657   11660   11662
   11658   11657   11660   11663   11659   11657   11660   11661
   11659   11657   11660   11662   11659   11657   11660   11663
   11661   11660   11663   11664   11662   11660   11663   11664
   11665   11669   11670   11671   11665   11669   11670   11672
   11665   11669   11670   11673   11665   11669   11679   11676
   11665   11669   11679   11680   11666   11665   11669   11670
   11666   11665   11669   11679   11667   11665   11669   11670
   11667   11665   11669   11679   11668   11665   11669   11670
   11668   11665   11669   11679   11669   11670   11673   11674
   11669   11670   11673   11675   11669   11670   11673   11676
   11669   11679   11676   11673   11669   11679   11676   11677
   11669   11679   11676   11678   11670   11669   11679   11676
   11670   11669   11679   11680   11670   11673   11676   11677
   11670   11673   11676   11678   11670   11673   11676   11679
   11671   11670   11669   11679   11671   11670   11673   11674
   11671   11670   11673   11675   11671   11670   11673   11676
   11672   11670   11669   11679   11672   11670   11673   11674
   11672   11670   11673   11675   11672   11670   11673   11676
   11673   11670   11669   11679   11673   11676   11679   11680
   11674   11673   11676   11677   11674   11673   11676   11678
   11674   11673   11676   11679   11675   11673   11676   11677
   11675   11673   11676   11678   11675   11673   11676   11679
   11677   11676   11679   11680   11678   11676   11679   11680
   11681   11685   11686   11687   11681   11685   11686   11688
   11681   11685   11686   11689   11681   11685   11695   11692
   11681   11685   11695   11696   11682   11681   11685   11686
   11682   11681   11685   11695   11683   11681   11685   11686
   11683   11681   11685   11695   11684   11681   11685   11686
   11684   11681   11685   11695   11685   11686   11689   11690
   11685   11686   11689   11691   11685   11686   11689   11692
   11685   11695   11692   11689   11685   11695   11692   11693
   11685   11695   11692   11694   11686   11685   11695   11692
   11686   11685   11695   11696   11686   11689   11692   11693
   11686   11689   11692   11694   11686   11689   11692   11695
   11687   11686   11685   11695   11687   11686   11689   11690
   11687   11686   11689   11691   11687   11686   11689   11692
   11688   11686   11685   11695   11688   11686   11689   11690
   11688   11686   11689   11691   11688   11686   11689   11692
   11689   11686   11685   11695   11689   11692   11695   11696
   11690   11689   11692   11693   11690   11689   11692   11694
   11690   11689   11692   11695   11691   11689   11692   11693
   11691   11689   11692   11694   11691   11689   11692   11695
   11693   11692   11695   11696   11694   11692   11695   11696
   11697   11701   11702   11703   11697   11701   11702   11704
   11697   11701   11702   11705   11697   11701   11711   11708
   11697   11701   11711   11712   11698   11697   11701   11702
   11698   11697   11701   11711   11699   11697   11701   11702
   11699   11697   11701   11711   11700   11697   11701   11702
   11700   11697   11701   11711   11701   11702   11705   11706
   11701   11702   11705   11707   11701   11702   11705   11708
   11701   11711   11708   11705   11701   11711   11708   11709
   11701   11711   11708   11710   11702   11701   11711   11708
   11702   11701   11711   11712   11702   11705   11708   11709
   11702   11705   11708   11710   11702   11705   11708   11711
   11703   11702   11701   11711   11703   11702   11705   11706
   11703   11702   11705   11707   11703   11702   11705   11708
   11704   11702   11701   11711   11704   11702   11705   11706
   11704   11702   11705   11707   11704   11702   11705   11708
   11705   11702   11701   11711   11705   11708   11711   11712
   11706   11705   11708   11709   11706   11705   11708   11710
   11706   11705   11708   11711   11707   11705   11708   11709
   11707   11705   11708   11710   11707   11705   11708   11711
   11709   11708   11711   11712   11710   11708   11711   11712
   11713   11717   11718   11719   11713   11717   11718   11720
   11713   11717   11718   11721   11713   11717   11727   11724
   11713   11717   11727   11728   11714   11713   11717   11718
   11714   11713   11717   11727   11715   11713   11717   11718
   11715   11713   11717   11727   11716   11713   11717   11718
   11716   11713   11717   11727   11717   11718   11721   11722
   11717   11718   11721   11723   11717   11718   11721   11724
   11717   11727   11724   11721   11717   11727   11724   11725
   11717   11727   11724   11726   11718   11717   11727   11724
   11718   11717   11727   11728   11718   11721   11724   11725
   11718   11721   11724   11726   11718   11721   11724   11727
   11719   11718   11717   11727   11719   11718   11721   11722
   11719   11718   11721   11723   11719   11718   11721   11724
   11720   11718   11717   11727   11720   11718   11721   11722
   11720   11718   11721   11723   11720   11718   11721   11724
   11721   11718   11717   11727   11721   11724   11727   11728
   11722   11721   11724   11725   11722   11721   11724   11726
   11722   11721   11724   11727   11723   11721   11724   11725
   11723   11721   11724   11726   11723   11721   11724   11727
   11725   11724   11727   11728   11726   11724   11727   11728
   11729   11733   11734   11735   11729   11733   11734   11736
   11729   11733   11734   11737   11729   11733   11743   11740
   11729   11733   11743   11744   11730   11729   11733   11734
   11730   11729   11733   11743   11731   11729   11733   11734
   11731   11729   11733   11743   11732   11729   11733   11734
   11732   11729   11733   11743   11733   11734   11737   11738
   11733   11734   11737   11739   11733   11734   11737   11740
   11733   11743   11740   11737   11733   11743   11740   11741
   11733   11743   11740   11742   11734   11733   11743   11740
   11734   11733   11743   11744   11734   11737   11740   11741
   11734   11737   11740   11742   11734   11737   11740   11743
   11735   11734   11733   11743   11735   11734   11737   11738
   11735   11734   11737   11739   11735   11734   11737   11740
   11736   11734   11733   11743   11736   11734   11737   11738
   11736   11734   11737   11739   11736   11734   11737   11740
   11737   11734   11733   11743   11737   11740   11743   11744
   11738   11737   11740   11741   11738   11737   11740   11742
   11738   11737   11740   11743   11739   11737   11740   11741
   11739   11737   11740   11742   11739   11737   11740   11743
   11741   11740   11743   11744   11742   11740   11743   11744
   11745   11749   11750   11751   11745   11749   11750   11752
   11745   11749   11750   11753   11745   11749   11759   11756
   11745   11749   11759   11760   11746   11745   11749   11750
   11746   11745   11749   11759   11747   11745   11749   11750
   11747   11745   11749   11759   11748   11745   11749   11750
   11748   11745   11749   11759   11749   11750   11753   11754
   11749   11750   11753   11755   11749   11750   11753   11756
   11749   11759   11756   11753   11749   11759   11756   11757
   11749   11759   11756   11758   11750   11749   11759   11756
   11750   11749   11759   11760   11750   11753   11756   11757
   11750   11753   11756   11758   11750   11753   11756   11759
   11751   11750   11749   11759   11751   11750   11753   11754
   11751   11750   11753   11755   11751   11750   11753   11756
   11752   11750   11749   11759   11752   11750   11753   11754
   11752   11750   11753   11755   11752   11750   11753   11756
   11753   11750   11749   11759   11753   11756   11759   11760
   11754   11753   11756   11757   11754   11753   11756   11758
   11754   11753   11756   11759   11755   11753   11756   11757
   11755   11753   11756   11758   11755   11753   11756   11759
   11757   11756   11759   11760   11758   11756   11759   11760
   11761   11765   11766   11767   11761   11765   11766   11768
   11761   11765   11766   11769   11761   11765   11775   11772
   11761   11765   11775   11776   11762   11761   11765   11766
   11762   11761   11765   11775   11763   11761   11765   11766
   11763   11761   11765   11775   11764   11761   11765   11766
   11764   11761   11765   11775   11765   11766   11769   11770
   11765   11766   11769   11771   11765   11766   11769   11772
   11765   11775   11772   11769   11765   11775   11772   11773
   11765   11775   11772   11774   11766   11765   11775   11772
   11766   11765   11775   11776   11766   11769   11772   11773
   11766   11769   11772   11774   11766   11769   11772   11775
   11767   11766   11765   11775   11767   11766   11769   11770
   11767   11766   11769   11771   11767   11766   11769   11772
   11768   11766   11765   11775   11768   11766   11769   11770
   11768   11766   11769   11771   11768   11766   11769   11772
   11769   11766   11765   11775   11769   11772   11775   11776
   11770   11769   11772   11773   11770   11769   11772   11774
   11770   11769   11772   11775   11771   11769   11772   11773
   11771   11769   11772   11774   11771   11769   11772   11775
   11773   11772   11775   11776   11774   11772   11775   11776
   11777   11781   11782   11783   11777   11781   11782   11784
   11777   11781   11782   11785   11777   11781   11791   11788
   11777   11781   11791   11792   11778   11777   11781   11782
   11778   11777   11781   11791   11779   11777   11781   11782
   11779   11777   11781   11791   11780   11777   11781   11782
   11780   11777   11781   11791   11781   11782   11785   11786
   11781   11782   11785   11787   11781   11782   11785   11788
   11781   11791   11788   11785   11781   11791   11788   11789
   11781   11791   11788   11790   11782   11781   11791   11788
   11782   11781   11791   11792   11782   11785   11788   11789
   11782   11785   11788   11790   11782   11785   11788   11791
   11783   11782   11781   11791   11783   11782   11785   11786
   11783   11782   11785   11787   11783   11782   11785   11788
   11784   11782   11781   11791   11784   11782   11785   11786
   11784   11782   11785   11787   11784   11782   11785   11788
   11785   11782   11781   11791   11785   11788   11791   11792
   11786   11785   11788   11789   11786   11785   11788   11790
   11786   11785   11788   11791   11787   11785   11788   11789
   11787   11785   11788   11790   11787   11785   11788   11791
   11789   11788   11791   11792   11790   11788   11791   11792
   11793   11797   11798   11799   11793   11797   11798   11800
   11793   11797   11798   11801   11793   11797   11807   11804
   11793   11797   11807   11808   11794   11793   11797   11798
   11794   11793   11797   11807   11795   11793   11797   11798
   11795   11793   11797   11807   11796   11793   11797   11798
   11796   11793   11797   11807   11797   11798   11801   11802
   11797   11798   11801   11803   11797   11798   11801   11804
   11797   11807   11804   11801   11797   11807   11804   11805
   11797   11807   11804   11806   11798   11797   11807   11804
   11798   11797   11807   11808   11798   11801   11804   11805
   11798   11801   11804   11806   11798   11801   11804   11807
   11799   11798   11797   11807   11799   11798   11801   11802
   11799   11798   11801   11803   11799   11798   11801   11804
   11800   11798   11797   11807   11800   11798   11801   11802
   11800   11798   11801   11803   11800   11798   11801   11804
   11801   11798   11797   11807   11801   11804   11807   11808
   11802   11801   11804   11805   11802   11801   11804   11806
   11802   11801   11804   11807   11803   11801   11804   11805
   11803   11801   11804   11806   11803   11801   11804   11807
   11805   11804   11807   11808   11806   11804   11807   11808
   11809   11813   11814   11815   11809   11813   11814   11816
   11809   11813   11814   11817   11809   11813   11823   11820
   11809   11813   11823   11824   11810   11809   11813   11814
   11810   11809   11813   11823   11811   11809   11813   11814
   11811   11809   11813   11823   11812   11809   11813   11814
   11812   11809   11813   11823   11813   11814   11817   11818
   11813   11814   11817   11819   11813   11814   11817   11820
   11813   11823   11820   11817   11813   11823   11820   11821
   11813   11823   11820   11822   11814   11813   11823   11820
   11814   11813   11823   11824   11814   11817   11820   11821
   11814   11817   11820   11822   11814   11817   11820   11823
   11815   11814   11813   11823   11815   11814   11817   11818
   11815   11814   11817   11819   11815   11814   11817   11820
   11816   11814   11813   11823   11816   11814   11817   11818
   11816   11814   11817   11819   11816   11814   11817   11820
   11817   11814   11813   11823   11817   11820   11823   11824
   11818   11817   11820   11821   11818   11817   11820   11822
   11818   11817   11820   11823   11819   11817   11820   11821
   11819   11817   11820   11822   11819   11817   11820   11823
   11821   11820   11823   11824   11822   11820   11823   11824
   11825   11829   11830   11831   11825   11829   11830   11832
   11825   11829   11830   11833   11825   11829   11839   11836
   11825   11829   11839   11840   11826   11825   11829   11830
   11826   11825   11829   11839   11827   11825   11829   11830
   11827   11825   11829   11839   11828   11825   11829   11830
   11828   11825   11829   11839   11829   11830   11833   11834
   11829   11830   11833   11835   11829   11830   11833   11836
   11829   11839   11836   11833   11829   11839   11836   11837
   11829   11839   11836   11838   11830   11829   11839   11836
   11830   11829   11839   11840   11830   11833   11836   11837
   11830   11833   11836   11838   11830   11833   11836   11839
   11831   11830   11829   11839   11831   11830   11833   11834
   11831   11830   11833   11835   11831   11830   11833   11836
   11832   11830   11829   11839   11832   11830   11833   11834
   11832   11830   11833   11835   11832   11830   11833   11836
   11833   11830   11829   11839   11833   11836   11839   11840
   11834   11833   11836   11837   11834   11833   11836   11838
   11834   11833   11836   11839   11835   11833   11836   11837
   11835   11833   11836   11838   11835   11833   11836   11839
   11837   11836   11839   11840   11838   11836   11839   11840
   11841   11845   11846   11847   11841   11845   11846   11848
   11841   11845   11846   11849   11841   11845   11855   11852
   11841   11845   11855   11856   11842   11841   11845   11846
   11842   11841   11845   11855   11843   11841   11845   11846
   11843   11841   11845   11855   11844   11841   11845   11846
   11844   11841   11845   11855   11845   11846   11849   11850
   11845   11846   11849   11851   11845   11846   11849   11852
   11845   11855   11852   11849   11845   11855   11852   11853
   11845   11855   11852   11854   11846   11845   11855   11852
   11846   11845   11855   11856   11846   11849   11852   11853
   11846   11849   11852   11854   11846   11849   11852   11855
   11847   11846   11845   11855   11847   11846   11849   11850
   11847   11846   11849   11851   11847   11846   11849   11852
   11848   11846   11845   11855   11848   11846   11849   11850
   11848   11846   11849   11851   11848   11846   11849   11852
   11849   11846   11845   11855   11849   11852   11855   11856
   11850   11849   11852   11853   11850   11849   11852   11854
   11850   11849   11852   11855   11851   11849   11852   11853
   11851   11849   11852   11854   11851   11849   11852   11855
   11853   11852   11855   11856   11854   11852   11855   11856
   11857   11861   11862   11863   11857   11861   11862   11864
   11857   11861   11862   11865   11857   11861   11871   11868
   11857   11861   11871   11872   11858   11857   11861   11862
   11858   11857   11861   11871   11859   11857   11861   11862
   11859   11857   11861   11871   11860   11857   11861   11862
   11860   11857   11861   11871   11861   11862   11865   11866
   11861   11862   11865   11867   11861   11862   11865   11868
   11861   11871   11868   11865   11861   11871   11868   11869
   11861   11871   11868   11870   11862   11861   11871   11868
   11862   11861   11871   11872   11862   11865   11868   11869
   11862   11865   11868   11870   11862   11865   11868   11871
   11863   11862   11861   11871   11863   11862   11865   11866
   11863   11862   11865   11867   11863   11862   11865   11868
   11864   11862   11861   11871   11864   11862   11865   11866
   11864   11862   11865   11867   11864   11862   11865   11868
   11865   11862   11861   11871   11865   11868   11871   11872
   11866   11865   11868   11869   11866   11865   11868   11870
   11866   11865   11868   11871   11867   11865   11868   11869
   11867   11865   11868   11870   11867   11865   11868   11871
   11869   11868   11871   11872   11870   11868   11871   11872
   11873   11877   11878   11879   11873   11877   11878   11880
   11873   11877   11878   11881   11873   11877   11887   11884
   11873   11877   11887   11888   11874   11873   11877   11878
   11874   11873   11877   11887   11875   11873   11877   11878
   11875   11873   11877   11887   11876   11873   11877   11878
   11876   11873   11877   11887   11877   11878   11881   11882
   11877   11878   11881   11883   11877   11878   11881   11884
   11877   11887   11884   11881   11877   11887   11884   11885
   11877   11887   11884   11886   11878   11877   11887   11884
   11878   11877   11887   11888   11878   11881   11884   11885
   11878   11881   11884   11886   11878   11881   11884   11887
   11879   11878   11877   11887   11879   11878   11881   11882
   11879   11878   11881   11883   11879   11878   11881   11884
   11880   11878   11877   11887   11880   11878   11881   11882
   11880   11878   11881   11883   11880   11878   11881   11884
   11881   11878   11877   11887   11881   11884   11887   11888
   11882   11881   11884   11885   11882   11881   11884   11886
   11882   11881   11884   11887   11883   11881   11884   11885
   11883   11881   11884   11886   11883   11881   11884   11887
   11885   11884   11887   11888   11886   11884   11887   11888
   11889   11893   11894   11895   11889   11893   11894   11896
   11889   11893   11894   11897   11889   11893   11903   11900
   11889   11893   11903   11904   11890   11889   11893   11894
   11890   11889   11893   11903   11891   11889   11893   11894
   11891   11889   11893   11903   11892   11889   11893   11894
   11892   11889   11893   11903   11893   11894   11897   11898
   11893   11894   11897   11899   11893   11894   11897   11900
   11893   11903   11900   11897   11893   11903   11900   11901
   11893   11903   11900   11902   11894   11893   11903   11900
   11894   11893   11903   11904   11894   11897   11900   11901
   11894   11897   11900   11902   11894   11897   11900   11903
   11895   11894   11893   11903   11895   11894   11897   11898
   11895   11894   11897   11899   11895   11894   11897   11900
   11896   11894   11893   11903   11896   11894   11897   11898
   11896   11894   11897   11899   11896   11894   11897   11900
   11897   11894   11893   11903   11897   11900   11903   11904
   11898   11897   11900   11901   11898   11897   11900   11902
   11898   11897   11900   11903   11899   11897   11900   11901
   11899   11897   11900   11902   11899   11897   11900   11903
   11901   11900   11903   11904   11902   11900   11903   11904
   11905   11909   11910   11911   11905   11909   11910   11912
   11905   11909   11910   11913   11905   11909   11919   11916
   11905   11909   11919   11920   11906   11905   11909   11910
   11906   11905   11909   11919   11907   11905   11909   11910
   11907   11905   11909   11919   11908   11905   11909   11910
   11908   11905   11909   11919   11909   11910   11913   11914
   11909   11910   11913   11915   11909   11910   11913   11916
   11909   11919   11916   11913   11909   11919   11916   11917
   11909   11919   11916   11918   11910   11909   11919   11916
   11910   11909   11919   11920   11910   11913   11916   11917
   11910   11913   11916   11918   11910   11913   11916   11919
   11911   11910   11909   11919   11911   11910   11913   11914
   11911   11910   11913   11915   11911   11910   11913   11916
   11912   11910   11909   11919   11912   11910   11913   11914
   11912   11910   11913   11915   11912   11910   11913   11916
   11913   11910   11909   11919   11913   11916   11919   11920
   11914   11913   11916   11917   11914   11913   11916   11918
   11914   11913   11916   11919   11915   11913   11916   11917
   11915   11913   11916   11918   11915   11913   11916   11919
   11917   11916   11919   11920   11918   11916   11919   11920
   11921   11925   11926   11927   11921   11925   11926   11928
   11921   11925   11926   11929   11921   11925   11935   11932
   11921   11925   11935   11936   11922   11921   11925   11926
   11922   11921   11925   11935   11923   11921   11925   11926
   11923   11921   11925   11935   11924   11921   11925   11926
   11924   11921   11925   11935   11925   11926   11929   11930
   11925   11926   11929   11931   11925   11926   11929   11932
   11925   11935   11932   11929   11925   11935   11932   11933
   11925   11935   11932   11934   11926   11925   11935   11932
   11926   11925   11935   11936   11926   11929   11932   11933
   11926   11929   11932   11934   11926   11929   11932   11935
   11927   11926   11925   11935   11927   11926   11929   11930
   11927   11926   11929   11931   11927   11926   11929   11932
   11928   11926   11925   11935   11928   11926   11929   11930
   11928   11926   11929   11931   11928   11926   11929   11932
   11929   11926   11925   11935   11929   11932   11935   11936
   11930   11929   11932   11933   11930   11929   11932   11934
   11930   11929   11932   11935   11931   11929   11932   11933
   11931   11929   11932   11934   11931   11929   11932   11935
   11933   11932   11935   11936   11934   11932   11935   11936
   11937   11941   11942   11943   11937   11941   11942   11944
   11937   11941   11942   11945   11937   11941   11951   11948
   11937   11941   11951   11952   11938   11937   11941   11942
   11938   11937   11941   11951   11939   11937   11941   11942
   11939   11937   11941   11951   11940   11937   11941   11942
   11940   11937   11941   11951   11941   11942   11945   11946
   11941   11942   11945   11947   11941   11942   11945   11948
   11941   11951   11948   11945   11941   11951   11948   11949
   11941   11951   11948   11950   11942   11941   11951   11948
   11942   11941   11951   11952   11942   11945   11948   11949
   11942   11945   11948   11950   11942   11945   11948   11951
   11943   11942   11941   11951   11943   11942   11945   11946
   11943   11942   11945   11947   11943   11942   11945   11948
   11944   11942   11941   11951   11944   11942   11945   11946
   11944   11942   11945   11947   11944   11942   11945   11948
   11945   11942   11941   11951   11945   11948   11951   11952
   11946   11945   11948   11949   11946   11945   11948   11950
   11946   11945   11948   11951   11947   11945   11948   11949
   11947   11945   11948   11950   11947   11945   11948   11951
   11949   11948   11951   11952   11950   11948   11951   11952
   11953   11957   11958   11959   11953   11957   11958   11960
   11953   11957   11958   11961   11953   11957   11967   11964
   11953   11957   11967   11968   11954   11953   11957   11958
   11954   11953   11957   11967   11955   11953   11957   11958
   11955   11953   11957   11967   11956   11953   11957   11958
   11956   11953   11957   11967   11957   11958   11961   11962
   11957   11958   11961   11963   11957   11958   11961   11964
   11957   11967   11964   11961   11957   11967   11964   11965
   11957   11967   11964   11966   11958   11957   11967   11964
   11958   11957   11967   11968   11958   11961   11964   11965
   11958   11961   11964   11966   11958   11961   11964   11967
   11959   11958   11957   11967   11959   11958   11961   11962
   11959   11958   11961   11963   11959   11958   11961   11964
   11960   11958   11957   11967   11960   11958   11961   11962
   11960   11958   11961   11963   11960   11958   11961   11964
   11961   11958   11957   11967   11961   11964   11967   11968
   11962   11961   11964   11965   11962   11961   11964   11966
   11962   11961   11964   11967   11963   11961   11964   11965
   11963   11961   11964   11966   11963   11961   11964   11967
   11965   11964   11967   11968   11966   11964   11967   11968
   11969   11973   11974   11975   11969   11973   11974   11976
   11969   11973   11974   11977   11969   11973   11983   11980
   11969   11973   11983   11984   11970   11969   11973   11974
   11970   11969   11973   11983   11971   11969   11973   11974
   11971   11969   11973   11983   11972   11969   11973   11974
   11972   11969   11973   11983   11973   11974   11977   11978
   11973   11974   11977   11979   11973   11974   11977   11980
   11973   11983   11980   11977   11973   11983   11980   11981
   11973   11983   11980   11982   11974   11973   11983   11980
   11974   11973   11983   11984   11974   11977   11980   11981
   11974   11977   11980   11982   11974   11977   11980   11983
   11975   11974   11973   11983   11975   11974   11977   11978
   11975   11974   11977   11979   11975   11974   11977   11980
   11976   11974   11973   11983   11976   11974   11977   11978
   11976   11974   11977   11979   11976   11974   11977   11980
   11977   11974   11973   11983   11977   11980   11983   11984
   11978   11977   11980   11981   11978   11977   11980   11982
   11978   11977   11980   11983   11979   11977   11980   11981
   11979   11977   11980   11982   11979   11977   11980   11983
   11981   11980   11983   11984   11982   11980   11983   11984
   11985   11989   11990   11991   11985   11989   11990   11992
   11985   11989   11990   11993   11985   11989   11999   11996
   11985   11989   11999   12000   11986   11985   11989   11990
   11986   11985   11989   11999   11987   11985   11989   11990
   11987   11985   11989   11999   11988   11985   11989   11990
   11988   11985   11989   11999   11989   11990   11993   11994
   11989   11990   11993   11995   11989   11990   11993   11996
   11989   11999   11996   11993   11989   11999   11996   11997
   11989   11999   11996   11998   11990   11989   11999   11996
   11990   11989   11999   12000   11990   11993   11996   11997
   11990   11993   11996   11998   11990   11993   11996   11999
   11991   11990   11989   11999   11991   11990   11993   11994
   11991   11990   11993   11995   11991   11990   11993   11996
   11992   11990   11989   11999   11992   11990   11993   11994
   11992   11990   11993   11995   11992   11990   11993   11996
   11993   11990   11989   11999   11993   11996   11999   12000
   11994   11993   11996   11997   11994   11993   11996   11998
   11994   11993   11996   11999   11995   11993   11996   11997
   11995   11993   11996   11998   11995   11993   11996   11999
   11997   11996   11999   12000   11998   11996   11999   12000
   12001   12005   12006   12007   12001   12005   12006   12008
   12001   12005   12006   12009   12001   12005   12015   12012
   12001   12005   12015   12016   12002   12001   12005   12006
   12002   12001   12005   12015   12003   12001   12005   12006
   12003   12001   12005   12015   12004   12001   12005   12006
   12004   12001   12005   12015   12005   12006   12009   12010
   12005   12006   12009   12011   12005   12006   12009   12012
   12005   12015   12012   12009   12005   12015   12012   12013
   12005   12015   12012   12014   12006   12005   12015   12012
   12006   12005   12015   12016   12006   12009   12012   12013
   12006   12009   12012   12014   12006   12009   12012   12015
   12007   12006   12005   12015   12007   12006   12009   12010
   12007   12006   12009   12011   12007   12006   12009   12012
   12008   12006   12005   12015   12008   12006   12009   12010
   12008   12006   12009   12011   12008   12006   12009   12012
   12009   12006   12005   12015   12009   12012   12015   12016
   12010   12009   12012   12013   12010   12009   12012   12014
   12010   12009   12012   12015   12011   12009   12012   12013
   12011   12009   12012   12014   12011   12009   12012   12015
   12013   12012   12015   12016   12014   12012   12015   12016
   12017   12021   12022   12023   12017   12021   12022   12024
   12017   12021   12022   12025   12017   12021   12031   12028
   12017   12021   12031   12032   12018   12017   12021   12022
   12018   12017   12021   12031   12019   12017   12021   12022
   12019   12017   12021   12031   12020   12017   12021   12022
   12020   12017   12021   12031   12021   12022   12025   12026
   12021   12022   12025   12027   12021   12022   12025   12028
   12021   12031   12028   12025   12021   12031   12028   12029
   12021   12031   12028   12030   12022   12021   12031   12028
   12022   12021   12031   12032   12022   12025   12028   12029
   12022   12025   12028   12030   12022   12025   12028   12031
   12023   12022   12021   12031   12023   12022   12025   12026
   12023   12022   12025   12027   12023   12022   12025   12028
   12024   12022   12021   12031   12024   12022   12025   12026
   12024   12022   12025   12027   12024   12022   12025   12028
   12025   12022   12021   12031   12025   12028   12031   12032
   12026   12025   12028   12029   12026   12025   12028   12030
   12026   12025   12028   12031   12027   12025   12028   12029
   12027   12025   12028   12030   12027   12025   12028   12031
   12029   12028   12031   12032   12030   12028   12031   12032
   12033   12037   12038   12039   12033   12037   12038   12040
   12033   12037   12038   12041   12033   12037   12047   12044
   12033   12037   12047   12048   12034   12033   12037   12038
   12034   12033   12037   12047   12035   12033   12037   12038
   12035   12033   12037   12047   12036   12033   12037   12038
   12036   12033   12037   12047   12037   12038   12041   12042
   12037   12038   12041   12043   12037   12038   12041   12044
   12037   12047   12044   12041   12037   12047   12044   12045
   12037   12047   12044   12046   12038   12037   12047   12044
   12038   12037   12047   12048   12038   12041   12044   12045
   12038   12041   12044   12046   12038   12041   12044   12047
   12039   12038   12037   12047   12039   12038   12041   12042
   12039   12038   12041   12043   12039   12038   12041   12044
   12040   12038   12037   12047   12040   12038   12041   12042
   12040   12038   12041   12043   12040   12038   12041   12044
   12041   12038   12037   12047   12041   12044   12047   12048
   12042   12041   12044   12045   12042   12041   12044   12046
   12042   12041   12044   12047   12043   12041   12044   12045
   12043   12041   12044   12046   12043   12041   12044   12047
   12045   12044   12047   12048   12046   12044   12047   12048
   12049   12053   12054   12055   12049   12053   12054   12056
   12049   12053   12054   12057   12049   12053   12063   12060
   12049   12053   12063   12064   12050   12049   12053   12054
   12050   12049   12053   12063   12051   12049   12053   12054
   12051   12049   12053   12063   12052   12049   12053   12054
   12052   12049   12053   12063   12053   12054   12057   12058
   12053   12054   12057   12059   12053   12054   12057   12060
   12053   12063   12060   12057   12053   12063   12060   12061
   12053   12063   12060   12062   12054   12053   12063   12060
   12054   12053   12063   12064   12054   12057   12060   12061
   12054   12057   12060   12062   12054   12057   12060   12063
   12055   12054   12053   12063   12055   12054   12057   12058
   12055   12054   12057   12059   12055   12054   12057   12060
   12056   12054   12053   12063   12056   12054   12057   12058
   12056   12054   12057   12059   12056   12054   12057   12060
   12057   12054   12053   12063   12057   12060   12063   12064
   12058   12057   12060   12061   12058   12057   12060   12062
   12058   12057   12060   12063   12059   12057   12060   12061
   12059   12057   12060   12062   12059   12057   12060   12063
   12061   12060   12063   12064   12062   12060   12063   12064
   12065   12069   12070   12071   12065   12069   12070   12072
   12065   12069   12070   12073   12065   12069   12079   12076
   12065   12069   12079   12080   12066   12065   12069   12070
   12066   12065   12069   12079   12067   12065   12069   12070
   12067   12065   12069   12079   12068   12065   12069   12070
   12068   12065   12069   12079   12069   12070   12073   12074
   12069   12070   12073   12075   12069   12070   12073   12076
   12069   12079   12076   12073   12069   12079   12076   12077
   12069   12079   12076   12078   12070   12069   12079   12076
   12070   12069   12079   12080   12070   12073   12076   12077
   12070   12073   12076   12078   12070   12073   12076   12079
   12071   12070   12069   12079   12071   12070   12073   12074
   12071   12070   12073   12075   12071   12070   12073   12076
   12072   12070   12069   12079   12072   12070   12073   12074
   12072   12070   12073   12075   12072   12070   12073   12076
   12073   12070   12069   12079   12073   12076   12079   12080
   12074   12073   12076   12077   12074   12073   12076   12078
   12074   12073   12076   12079   12075   12073   12076   12077
   12075   12073   12076   12078   12075   12073   12076   12079
   12077   12076   12079   12080   12078   12076   12079   12080
   12081   12085   12086   12087   12081   12085   12086   12088
   12081   12085   12086   12089   12081   12085   12095   12092
   12081   12085   12095   12096   12082   12081   12085   12086
   12082   12081   12085   12095   12083   12081   12085   12086
   12083   12081   12085   12095   12084   12081   12085   12086
   12084   12081   12085   12095   12085   12086   12089   12090
   12085   12086   12089   12091   12085   12086   12089   12092
   12085   12095   12092   12089   12085   12095   12092   12093
   12085   12095   12092   12094   12086   12085   12095   12092
   12086   12085   12095   12096   12086   12089   12092   12093
   12086   12089   12092   12094   12086   12089   12092   12095
   12087   12086   12085   12095   12087   12086   12089   12090
   12087   12086   12089   12091   12087   12086   12089   12092
   12088   12086   12085   12095   12088   12086   12089   12090
   12088   12086   12089   12091   12088   12086   12089   12092
   12089   12086   12085   12095   12089   12092   12095   12096
   12090   12089   12092   12093   12090   12089   12092   12094
   12090   12089   12092   12095   12091   12089   12092   12093
   12091   12089   12092   12094   12091   12089   12092   12095
   12093   12092   12095   12096   12094   12092   12095   12096
   12097   12101   12102   12103   12097   12101   12102   12104
   12097   12101   12102   12105   12097   12101   12111   12108
   12097   12101   12111   12112   12098   12097   12101   12102
   12098   12097   12101   12111   12099   12097   12101   12102
   12099   12097   12101   12111   12100   12097   12101   12102
   12100   12097   12101   12111   12101   12102   12105   12106
   12101   12102   12105   12107   12101   12102   12105   12108
   12101   12111   12108   12105   12101   12111   12108   12109
   12101   12111   12108   12110   12102   12101   12111   12108
   12102   12101   12111   12112   12102   12105   12108   12109
   12102   12105   12108   12110   12102   12105   12108   12111
   12103   12102   12101   12111   12103   12102   12105   12106
   12103   12102   12105   12107   12103   12102   12105   12108
   12104   12102   12101   12111   12104   12102   12105   12106
   12104   12102   12105   12107   12104   12102   12105   12108
   12105   12102   12101   12111   12105   12108   12111   12112
   12106   12105   12108   12109   12106   12105   12108   12110
   12106   12105   12108   12111   12107   12105   12108   12109
   12107   12105   12108   12110   12107   12105   12108   12111
   12109   12108   12111   12112   12110   12108   12111   12112
   12113   12117   12118   12119   12113   12117   12118   12120
   12113   12117   12118   12121   12113   12117   12127   12124
   12113   12117   12127   12128   12114   12113   12117   12118
   12114   12113   12117   12127   12115   12113   12117   12118
   12115   12113   12117   12127   12116   12113   12117   12118
   12116   12113   12117   12127   12117   12118   12121   12122
   12117   12118   12121   12123   12117   12118   12121   12124
   12117   12127   12124   12121   12117   12127   12124   12125
   12117   12127   12124   12126   12118   12117   12127   12124
   12118   12117   12127   12128   12118   12121   12124   12125
   12118   12121   12124   12126   12118   12121   12124   12127
   12119   12118   12117   12127   12119   12118   12121   12122
   12119   12118   12121   12123   12119   12118   12121   12124
   12120   12118   12117   12127   12120   12118   12121   12122
   12120   12118   12121   12123   12120   12118   12121   12124
   12121   12118   12117   12127   12121   12124   12127   12128
   12122   12121   12124   12125   12122   12121   12124   12126
   12122   12121   12124   12127   12123   12121   12124   12125
   12123   12121   12124   12126   12123   12121   12124   12127
   12125   12124   12127   12128   12126   12124   12127   12128
   12129   12133   12134   12135   12129   12133   12134   12136
   12129   12133   12134   12137   12129   12133   12143   12140
   12129   12133   12143   12144   12130   12129   12133   12134
   12130   12129   12133   12143   12131   12129   12133   12134
   12131   12129   12133   12143   12132   12129   12133   12134
   12132   12129   12133   12143   12133   12134   12137   12138
   12133   12134   12137   12139   12133   12134   12137   12140
   12133   12143   12140   12137   12133   12143   12140   12141
   12133   12143   12140   12142   12134   12133   12143   12140
   12134   12133   12143   12144   12134   12137   12140   12141
   12134   12137   12140   12142   12134   12137   12140   12143
   12135   12134   12133   12143   12135   12134   12137   12138
   12135   12134   12137   12139   12135   12134   12137   12140
   12136   12134   12133   12143   12136   12134   12137   12138
   12136   12134   12137   12139   12136   12134   12137   12140
   12137   12134   12133   12143   12137   12140   12143   12144
   12138   12137   12140   12141   12138   12137   12140   12142
   12138   12137   12140   12143   12139   12137   12140   12141
   12139   12137   12140   12142   12139   12137   12140   12143
   12141   12140   12143   12144   12142   12140   12143   12144
   12145   12149   12150   12151   12145   12149   12150   12152
   12145   12149   12150   12153   12145   12149   12159   12156
   12145   12149   12159   12160   12146   12145   12149   12150
   12146   12145   12149   12159   12147   12145   12149   12150
   12147   12145   12149   12159   12148   12145   12149   12150
   12148   12145   12149   12159   12149   12150   12153   12154
   12149   12150   12153   12155   12149   12150   12153   12156
   12149   12159   12156   12153   12149   12159   12156   12157
   12149   12159   12156   12158   12150   12149   12159   12156
   12150   12149   12159   12160   12150   12153   12156   12157
   12150   12153   12156   12158   12150   12153   12156   12159
   12151   12150   12149   12159   12151   12150   12153   12154
   12151   12150   12153   12155   12151   12150   12153   12156
   12152   12150   12149   12159   12152   12150   12153   12154
   12152   12150   12153   12155   12152   12150   12153   12156
   12153   12150   12149   12159   12153   12156   12159   12160
   12154   12153   12156   12157   12154   12153   12156   12158
   12154   12153   12156   12159   12155   12153   12156   12157
   12155   12153   12156   12158   12155   12153   12156   12159
   12157   12156   12159   12160   12158   12156   12159   12160
   12161   12165   12166   12167   12161   12165   12166   12168
   12161   12165   12166   12169   12161   12165   12175   12172
   12161   12165   12175   12176   12162   12161   12165   12166
   12162   12161   12165   12175   12163   12161   12165   12166
   12163   12161   12165   12175   12164   12161   12165   12166
   12164   12161   12165   12175   12165   12166   12169   12170
   12165   12166   12169   12171   12165   12166   12169   12172
   12165   12175   12172   12169   12165   12175   12172   12173
   12165   12175   12172   12174   12166   12165   12175   12172
   12166   12165   12175   12176   12166   12169   12172   12173
   12166   12169   12172   12174   12166   12169   12172   12175
   12167   12166   12165   12175   12167   12166   12169   12170
   12167   12166   12169   12171   12167   12166   12169   12172
   12168   12166   12165   12175   12168   12166   12169   12170
   12168   12166   12169   12171   12168   12166   12169   12172
   12169   12166   12165   12175   12169   12172   12175   12176
   12170   12169   12172   12173   12170   12169   12172   12174
   12170   12169   12172   12175   12171   12169   12172   12173
   12171   12169   12172   12174   12171   12169   12172   12175
   12173   12172   12175   12176   12174   12172   12175   12176
   12177   12181   12182   12183   12177   12181   12182   12184
   12177   12181   12182   12185   12177   12181   12191   12188
   12177   12181   12191   12192   12178   12177   12181   12182
   12178   12177   12181   12191   12179   12177   12181   12182
   12179   12177   12181   12191   12180   12177   12181   12182
   12180   12177   12181   12191   12181   12182   12185   12186
   12181   12182   12185   12187   12181   12182   12185   12188
   12181   12191   12188   12185   12181   12191   12188   12189
   12181   12191   12188   12190   12182   12181   12191   12188
   12182   12181   12191   12192   12182   12185   12188   12189
   12182   12185   12188   12190   12182   12185   12188   12191
   12183   12182   12181   12191   12183   12182   12185   12186
   12183   12182   12185   12187   12183   12182   12185   12188
   12184   12182   12181   12191   12184   12182   12185   12186
   12184   12182   12185   12187   12184   12182   12185   12188
   12185   12182   12181   12191   12185   12188   12191   12192
   12186   12185   12188   12189   12186   12185   12188   12190
   12186   12185   12188   12191   12187   12185   12188   12189
   12187   12185   12188   12190   12187   12185   12188   12191
   12189   12188   12191   12192   12190   12188   12191   12192
   12193   12197   12198   12199   12193   12197   12198   12200
   12193   12197   12198   12201   12193   12197   12207   12204
   12193   12197   12207   12208   12194   12193   12197   12198
   12194   12193   12197   12207   12195   12193   12197   12198
   12195   12193   12197   12207   12196   12193   12197   12198
   12196   12193   12197   12207   12197   12198   12201   12202
   12197   12198   12201   12203   12197   12198   12201   12204
   12197   12207   12204   12201   12197   12207   12204   12205
   12197   12207   12204   12206   12198   12197   12207   12204
   12198   12197   12207   12208   12198   12201   12204   12205
   12198   12201   12204   12206   12198   12201   12204   12207
   12199   12198   12197   12207   12199   12198   12201   12202
   12199   12198   12201   12203   12199   12198   12201   12204
   12200   12198   12197   12207   12200   12198   12201   12202
   12200   12198   12201   12203   12200   12198   12201   12204
   12201   12198   12197   12207   12201   12204   12207   12208
   12202   12201   12204   12205   12202   12201   12204   12206
   12202   12201   12204   12207   12203   12201   12204   12205
   12203   12201   12204   12206   12203   12201   12204   12207
   12205   12204   12207   12208   12206   12204   12207   12208
   12209   12213   12214   12215   12209   12213   12214   12216
   12209   12213   12214   12217   12209   12213   12223   12220
   12209   12213   12223   12224   12210   12209   12213   12214
   12210   12209   12213   12223   12211   12209   12213   12214
   12211   12209   12213   12223   12212   12209   12213   12214
   12212   12209   12213   12223   12213   12214   12217   12218
   12213   12214   12217   12219   12213   12214   12217   12220
   12213   12223   12220   12217   12213   12223   12220   12221
   12213   12223   12220   12222   12214   12213   12223   12220
   12214   12213   12223   12224   12214   12217   12220   12221
   12214   12217   12220   12222   12214   12217   12220   12223
   12215   12214   12213   12223   12215   12214   12217   12218
   12215   12214   12217   12219   12215   12214   12217   12220
   12216   12214   12213   12223   12216   12214   12217   12218
   12216   12214   12217   12219   12216   12214   12217   12220
   12217   12214   12213   12223   12217   12220   12223   12224
   12218   12217   12220   12221   12218   12217   12220   12222
   12218   12217   12220   12223   12219   12217   12220   12221
   12219   12217   12220   12222   12219   12217   12220   12223
   12221   12220   12223   12224   12222   12220   12223   12224
   12225   12229   12230   12231   12225   12229   12230   12232
   12225   12229   12230   12233   12225   12229   12239   12236
   12225   12229   12239   12240   12226   12225   12229   12230
   12226   12225   12229   12239   12227   12225   12229   12230
   12227   12225   12229   12239   12228   12225   12229   12230
   12228   12225   12229   12239   12229   12230   12233   12234
   12229   12230   12233   12235   12229   12230   12233   12236
   12229   12239   12236   12233   12229   12239   12236   12237
   12229   12239   12236   12238   12230   12229   12239   12236
   12230   12229   12239   12240   12230   12233   12236   12237
   12230   12233   12236   12238   12230   12233   12236   12239
   12231   12230   12229   12239   12231   12230   12233   12234
   12231   12230   12233   12235   12231   12230   12233   12236
   12232   12230   12229   12239   12232   12230   12233   12234
   12232   12230   12233   12235   12232   12230   12233   12236
   12233   12230   12229   12239   12233   12236   12239   12240
   12234   12233   12236   12237   12234   12233   12236   12238
   12234   12233   12236   12239   12235   12233   12236   12237
   12235   12233   12236   12238   12235   12233   12236   12239
   12237   12236   12239   12240   12238   12236   12239   12240
   12241   12245   12246   12247   12241   12245   12246   12248
   12241   12245   12246   12249   12241   12245   12255   12252
   12241   12245   12255   12256   12242   12241   12245   12246
   12242   12241   12245   12255   12243   12241   12245   12246
   12243   12241   12245   12255   12244   12241   12245   12246
   12244   12241   12245   12255   12245   12246   12249   12250
   12245   12246   12249   12251   12245   12246   12249   12252
   12245   12255   12252   12249   12245   12255   12252   12253
   12245   12255   12252   12254   12246   12245   12255   12252
   12246   12245   12255   12256   12246   12249   12252   12253
   12246   12249   12252   12254   12246   12249   12252   12255
   12247   12246   12245   12255   12247   12246   12249   12250
   12247   12246   12249   12251   12247   12246   12249   12252
   12248   12246   12245   12255   12248   12246   12249   12250
   12248   12246   12249   12251   12248   12246   12249   12252
   12249   12246   12245   12255   12249   12252   12255   12256
   12250   12249   12252   12253   12250   12249   12252   12254
   12250   12249   12252   12255   12251   12249   12252   12253
   12251   12249   12252   12254   12251   12249   12252   12255
   12253   12252   12255   12256   12254   12252   12255   12256
   12257   12261   12262   12263   12257   12261   12262   12264
   12257   12261   12262   12265   12257   12261   12271   12268
   12257   12261   12271   12272   12258   12257   12261   12262
   12258   12257   12261   12271   12259   12257   12261   12262
   12259   12257   12261   12271   12260   12257   12261   12262
   12260   12257   12261   12271   12261   12262   12265   12266
   12261   12262   12265   12267   12261   12262   12265   12268
   12261   12271   12268   12265   12261   12271   12268   12269
   12261   12271   12268   12270   12262   12261   12271   12268
   12262   12261   12271   12272   12262   12265   12268   12269
   12262   12265   12268   12270   12262   12265   12268   12271
   12263   12262   12261   12271   12263   12262   12265   12266
   12263   12262   12265   12267   12263   12262   12265   12268
   12264   12262   12261   12271   12264   12262   12265   12266
   12264   12262   12265   12267   12264   12262   12265   12268
   12265   12262   12261   12271   12265   12268   12271   12272
   12266   12265   12268   12269   12266   12265   12268   12270
   12266   12265   12268   12271   12267   12265   12268   12269
   12267   12265   12268   12270   12267   12265   12268   12271
   12269   12268   12271   12272   12270   12268   12271   12272
   12273   12277   12278   12279   12273   12277   12278   12280
   12273   12277   12278   12281   12273   12277   12287   12284
   12273   12277   12287   12288   12274   12273   12277   12278
   12274   12273   12277   12287   12275   12273   12277   12278
   12275   12273   12277   12287   12276   12273   12277   12278
   12276   12273   12277   12287   12277   12278   12281   12282
   12277   12278   12281   12283   12277   12278   12281   12284
   12277   12287   12284   12281   12277   12287   12284   12285
   12277   12287   12284   12286   12278   12277   12287   12284
   12278   12277   12287   12288   12278   12281   12284   12285
   12278   12281   12284   12286   12278   12281   12284   12287
   12279   12278   12277   12287   12279   12278   12281   12282
   12279   12278   12281   12283   12279   12278   12281   12284
   12280   12278   12277   12287   12280   12278   12281   12282
   12280   12278   12281   12283   12280   12278   12281   12284
   12281   12278   12277   12287   12281   12284   12287   12288
   12282   12281   12284   12285   12282   12281   12284   12286
   12282   12281   12284   12287   12283   12281   12284   12285
   12283   12281   12284   12286   12283   12281   12284   12287
   12285   12284   12287   12288   12286   12284   12287   12288
   12289   12293   12294   12295   12289   12293   12294   12296
   12289   12293   12294   12297   12289   12293   12303   12300
   12289   12293   12303   12304   12290   12289   12293   12294
   12290   12289   12293   12303   12291   12289   12293   12294
   12291   12289   12293   12303   12292   12289   12293   12294
   12292   12289   12293   12303   12293   12294   12297   12298
   12293   12294   12297   12299   12293   12294   12297   12300
   12293   12303   12300   12297   12293   12303   12300   12301
   12293   12303   12300   12302   12294   12293   12303   12300
   12294   12293   12303   12304   12294   12297   12300   12301
   12294   12297   12300   12302   12294   12297   12300   12303
   12295   12294   12293   12303   12295   12294   12297   12298
   12295   12294   12297   12299   12295   12294   12297   12300
   12296   12294   12293   12303   12296   12294   12297   12298
   12296   12294   12297   12299   12296   12294   12297   12300
   12297   12294   12293   12303   12297   12300   12303   12304
   12298   12297   12300   12301   12298   12297   12300   12302
   12298   12297   12300   12303   12299   12297   12300   12301
   12299   12297   12300   12302   12299   12297   12300   12303
   12301   12300   12303   12304   12302   12300   12303   12304
   12305   12309   12310   12311   12305   12309   12310   12312
   12305   12309   12310   12313   12305   12309   12319   12316
   12305   12309   12319   12320   12306   12305   12309   12310
   12306   12305   12309   12319   12307   12305   12309   12310
   12307   12305   12309   12319   12308   12305   12309   12310
   12308   12305   12309   12319   12309   12310   12313   12314
   12309   12310   12313   12315   12309   12310   12313   12316
   12309   12319   12316   12313   12309   12319   12316   12317
   12309   12319   12316   12318   12310   12309   12319   12316
   12310   12309   12319   12320   12310   12313   12316   12317
   12310   12313   12316   12318   12310   12313   12316   12319
   12311   12310   12309   12319   12311   12310   12313   12314
   12311   12310   12313   12315   12311   12310   12313   12316
   12312   12310   12309   12319   12312   12310   12313   12314
   12312   12310   12313   12315   12312   12310   12313   12316
   12313   12310   12309   12319   12313   12316   12319   12320
   12314   12313   12316   12317   12314   12313   12316   12318
   12314   12313   12316   12319   12315   12313   12316   12317
   12315   12313   12316   12318   12315   12313   12316   12319
   12317   12316   12319   12320   12318   12316   12319   12320
   12321   12325   12326   12327   12321   12325   12326   12328
   12321   12325   12326   12329   12321   12325   12335   12332
   12321   12325   12335   12336   12322   12321   12325   12326
   12322   12321   12325   12335   12323   12321   12325   12326
   12323   12321   12325   12335   12324   12321   12325   12326
   12324   12321   12325   12335   12325   12326   12329   12330
   12325   12326   12329   12331   12325   12326   12329   12332
   12325   12335   12332   12329   12325   12335   12332   12333
   12325   12335   12332   12334   12326   12325   12335   12332
   12326   12325   12335   12336   12326   12329   12332   12333
   12326   12329   12332   12334   12326   12329   12332   12335
   12327   12326   12325   12335   12327   12326   12329   12330
   12327   12326   12329   12331   12327   12326   12329   12332
   12328   12326   12325   12335   12328   12326   12329   12330
   12328   12326   12329   12331   12328   12326   12329   12332
   12329   12326   12325   12335   12329   12332   12335   12336
   12330   12329   12332   12333   12330   12329   12332   12334
   12330   12329   12332   12335   12331   12329   12332   12333
   12331   12329   12332   12334   12331   12329   12332   12335
   12333   12332   12335   12336   12334   12332   12335   12336
   12337   12341   12342   12343   12337   12341   12342   12344
   12337   12341   12342   12345   12337   12341   12351   12348
   12337   12341   12351   12352   12338   12337   12341   12342
   12338   12337   12341   12351   12339   12337   12341   12342
   12339   12337   12341   12351   12340   12337   12341   12342
   12340   12337   12341   12351   12341   12342   12345   12346
   12341   12342   12345   12347   12341   12342   12345   12348
   12341   12351   12348   12345   12341   12351   12348   12349
   12341   12351   12348   12350   12342   12341   12351   12348
   12342   12341   12351   12352   12342   12345   12348   12349
   12342   12345   12348   12350   12342   12345   12348   12351
   12343   12342   12341   12351   12343   12342   12345   12346
   12343   12342   12345   12347   12343   12342   12345   12348
   12344   12342   12341   12351   12344   12342   12345   12346
   12344   12342   12345   12347   12344   12342   12345   12348
   12345   12342   12341   12351   12345   12348   12351   12352
   12346   12345   12348   12349   12346   12345   12348   12350
   12346   12345   12348   12351   12347   12345   12348   12349
   12347   12345   12348   12350   12347   12345   12348   12351
   12349   12348   12351   12352   12350   12348   12351   12352
   12353   12357   12358   12359   12353   12357   12358   12360
   12353   12357   12358   12361   12353   12357   12367   12364
   12353   12357   12367   12368   12354   12353   12357   12358
   12354   12353   12357   12367   12355   12353   12357   12358
   12355   12353   12357   12367   12356   12353   12357   12358
   12356   12353   12357   12367   12357   12358   12361   12362
   12357   12358   12361   12363   12357   12358   12361   12364
   12357   12367   12364   12361   12357   12367   12364   12365
   12357   12367   12364   12366   12358   12357   12367   12364
   12358   12357   12367   12368   12358   12361   12364   12365
   12358   12361   12364   12366   12358   12361   12364   12367
   12359   12358   12357   12367   12359   12358   12361   12362
   12359   12358   12361   12363   12359   12358   12361   12364
   12360   12358   12357   12367   12360   12358   12361   12362
   12360   12358   12361   12363   12360   12358   12361   12364
   12361   12358   12357   12367   12361   12364   12367   12368
   12362   12361   12364   12365   12362   12361   12364   12366
   12362   12361   12364   12367   12363   12361   12364   12365
   12363   12361   12364   12366   12363   12361   12364   12367
   12365   12364   12367   12368   12366   12364   12367   12368
   12369   12373   12374   12375   12369   12373   12374   12376
   12369   12373   12374   12377   12369   12373   12383   12380
   12369   12373   12383   12384   12370   12369   12373   12374
   12370   12369   12373   12383   12371   12369   12373   12374
   12371   12369   12373   12383   12372   12369   12373   12374
   12372   12369   12373   12383   12373   12374   12377   12378
   12373   12374   12377   12379   12373   12374   12377   12380
   12373   12383   12380   12377   12373   12383   12380   12381
   12373   12383   12380   12382   12374   12373   12383   12380
   12374   12373   12383   12384   12374   12377   12380   12381
   12374   12377   12380   12382   12374   12377   12380   12383
   12375   12374   12373   12383   12375   12374   12377   12378
   12375   12374   12377   12379   12375   12374   12377   12380
   12376   12374   12373   12383   12376   12374   12377   12378
   12376   12374   12377   12379   12376   12374   12377   12380
   12377   12374   12373   12383   12377   12380   12383   12384
   12378   12377   12380   12381   12378   12377   12380   12382
   12378   12377   12380   12383   12379   12377   12380   12381
   12379   12377   12380   12382   12379   12377   12380   12383
   12381   12380   12383   12384   12382   12380   12383   12384
   12385   12389   12390   12391   12385   12389   12390   12392
   12385   12389   12390   12393   12385   12389   12399   12396
   12385   12389   12399   12400   12386   12385   12389   12390
   12386   12385   12389   12399   12387   12385   12389   12390
   12387   12385   12389   12399   12388   12385   12389   12390
   12388   12385   12389   12399   12389   12390   12393   12394
   12389   12390   12393   12395   12389   12390   12393   12396
   12389   12399   12396   12393   12389   12399   12396   12397
   12389   12399   12396   12398   12390   12389   12399   12396
   12390   12389   12399   12400   12390   12393   12396   12397
   12390   12393   12396   12398   12390   12393   12396   12399
   12391   12390   12389   12399   12391   12390   12393   12394
   12391   12390   12393   12395   12391   12390   12393   12396
   12392   12390   12389   12399   12392   12390   12393   12394
   12392   12390   12393   12395   12392   12390   12393   12396
   12393   12390   12389   12399   12393   12396   12399   12400
   12394   12393   12396   12397   12394   12393   12396   12398
   12394   12393   12396   12399   12395   12393   12396   12397
   12395   12393   12396   12398   12395   12393   12396   12399
   12397   12396   12399   12400   12398   12396   12399   12400
   12401   12405   12406   12407   12401   12405   12406   12408
   12401   12405   12406   12409   12401   12405   12415   12412
   12401   12405   12415   12416   12402   12401   12405   12406
   12402   12401   12405   12415   12403   12401   12405   12406
   12403   12401   12405   12415   12404   12401   12405   12406
   12404   12401   12405   12415   12405   12406   12409   12410
   12405   12406   12409   12411   12405   12406   12409   12412
   12405   12415   12412   12409   12405   12415   12412   12413
   12405   12415   12412   12414   12406   12405   12415   12412
   12406   12405   12415   12416   12406   12409   12412   12413
   12406   12409   12412   12414   12406   12409   12412   12415
   12407   12406   12405   12415   12407   12406   12409   12410
   12407   12406   12409   12411   12407   12406   12409   12412
   12408   12406   12405   12415   12408   12406   12409   12410
   12408   12406   12409   12411   12408   12406   12409   12412
   12409   12406   12405   12415   12409   12412   12415   12416
   12410   12409   12412   12413   12410   12409   12412   12414
   12410   12409   12412   12415   12411   12409   12412   12413
   12411   12409   12412   12414   12411   12409   12412   12415
   12413   12412   12415   12416   12414   12412   12415   12416
   12417   12421   12422   12423   12417   12421   12422   12424
   12417   12421   12422   12425   12417   12421   12431   12428
   12417   12421   12431   12432   12418   12417   12421   12422
   12418   12417   12421   12431   12419   12417   12421   12422
   12419   12417   12421   12431   12420   12417   12421   12422
   12420   12417   12421   12431   12421   12422   12425   12426
   12421   12422   12425   12427   12421   12422   12425   12428
   12421   12431   12428   12425   12421   12431   12428   12429
   12421   12431   12428   12430   12422   12421   12431   12428
   12422   12421   12431   12432   12422   12425   12428   12429
   12422   12425   12428   12430   12422   12425   12428   12431
   12423   12422   12421   12431   12423   12422   12425   12426
   12423   12422   12425   12427   12423   12422   12425   12428
   12424   12422   12421   12431   12424   12422   12425   12426
   12424   12422   12425   12427   12424   12422   12425   12428
   12425   12422   12421   12431   12425   12428   12431   12432
   12426   12425   12428   12429   12426   12425   12428   12430
   12426   12425   12428   12431   12427   12425   12428   12429
   12427   12425   12428   12430   12427   12425   12428   12431
   12429   12428   12431   12432   12430   12428   12431   12432
   12433   12437   12438   12439   12433   12437   12438   12440
   12433   12437   12438   12441   12433   12437   12447   12444
   12433   12437   12447   12448   12434   12433   12437   12438
   12434   12433   12437   12447   12435   12433   12437   12438
   12435   12433   12437   12447   12436   12433   12437   12438
   12436   12433   12437   12447   12437   12438   12441   12442
   12437   12438   12441   12443   12437   12438   12441   12444
   12437   12447   12444   12441   12437   12447   12444   12445
   12437   12447   12444   12446   12438   12437   12447   12444
   12438   12437   12447   12448   12438   12441   12444   12445
   12438   12441   12444   12446   12438   12441   12444   12447
   12439   12438   12437   12447   12439   12438   12441   12442
   12439   12438   12441   12443   12439   12438   12441   12444
   12440   12438   12437   12447   12440   12438   12441   12442
   12440   12438   12441   12443   12440   12438   12441   12444
   12441   12438   12437   12447   12441   12444   12447   12448
   12442   12441   12444   12445   12442   12441   12444   12446
   12442   12441   12444   12447   12443   12441   12444   12445
   12443   12441   12444   12446   12443   12441   12444   12447
   12445   12444   12447   12448   12446   12444   12447   12448
   12449   12453   12454   12455   12449   12453   12454   12456
   12449   12453   12454   12457   12449   12453   12463   12460
   12449   12453   12463   12464   12450   12449   12453   12454
   12450   12449   12453   12463   12451   12449   12453   12454
   12451   12449   12453   12463   12452   12449   12453   12454
   12452   12449   12453   12463   12453   12454   12457   12458
   12453   12454   12457   12459   12453   12454   12457   12460
   12453   12463   12460   12457   12453   12463   12460   12461
   12453   12463   12460   12462   12454   12453   12463   12460
   12454   12453   12463   12464   12454   12457   12460   12461
   12454   12457   12460   12462   12454   12457   12460   12463
   12455   12454   12453   12463   12455   12454   12457   12458
   12455   12454   12457   12459   12455   12454   12457   12460
   12456   12454   12453   12463   12456   12454   12457   12458
   12456   12454   12457   12459   12456   12454   12457   12460
   12457   12454   12453   12463   12457   12460   12463   12464
   12458   12457   12460   12461   12458   12457   12460   12462
   12458   12457   12460   12463   12459   12457   12460   12461
   12459   12457   12460   12462   12459   12457   12460   12463
   12461   12460   12463   12464   12462   12460   12463   12464
   12465   12469   12470   12471   12465   12469   12470   12472
   12465   12469   12470   12473   12465   12469   12479   12476
   12465   12469   12479   12480   12466   12465   12469   12470
   12466   12465   12469   12479   12467   12465   12469   12470
   12467   12465   12469   12479   12468   12465   12469   12470
   12468   12465   12469   12479   12469   12470   12473   12474
   12469   12470   12473   12475   12469   12470   12473   12476
   12469   12479   12476   12473   12469   12479   12476   12477
   12469   12479   12476   12478   12470   12469   12479   12476
   12470   12469   12479   12480   12470   12473   12476   12477
   12470   12473   12476   12478   12470   12473   12476   12479
   12471   12470   12469   12479   12471   12470   12473   12474
   12471   12470   12473   12475   12471   12470   12473   12476
   12472   12470   12469   12479   12472   12470   12473   12474
   12472   12470   12473   12475   12472   12470   12473   12476
   12473   12470   12469   12479   12473   12476   12479   12480
   12474   12473   12476   12477   12474   12473   12476   12478
   12474   12473   12476   12479   12475   12473   12476   12477
   12475   12473   12476   12478   12475   12473   12476   12479
   12477   12476   12479   12480   12478   12476   12479   12480
   12481   12485   12486   12487   12481   12485   12486   12488
   12481   12485   12486   12489   12481   12485   12495   12492
   12481   12485   12495   12496   12482   12481   12485   12486
   12482   12481   12485   12495   12483   12481   12485   12486
   12483   12481   12485   12495   12484   12481   12485   12486
   12484   12481   12485   12495   12485   12486   12489   12490
   12485   12486   12489   12491   12485   12486   12489   12492
   12485   12495   12492   12489   12485   12495   12492   12493
   12485   12495   12492   12494   12486   12485   12495   12492
   12486   12485   12495   12496   12486   12489   12492   12493
   12486   12489   12492   12494   12486   12489   12492   12495
   12487   12486   12485   12495   12487   12486   12489   12490
   12487   12486   12489   12491   12487   12486   12489   12492
   12488   12486   12485   12495   12488   12486   12489   12490
   12488   12486   12489   12491   12488   12486   12489   12492
   12489   12486   12485   12495   12489   12492   12495   12496
   12490   12489   12492   12493   12490   12489   12492   12494
   12490   12489   12492   12495   12491   12489   12492   12493
   12491   12489   12492   12494   12491   12489   12492   12495
   12493   12492   12495   12496   12494   12492   12495   12496
   12497   12501   12502   12503   12497   12501   12502   12504
   12497   12501   12502   12505   12497   12501   12511   12508
   12497   12501   12511   12512   12498   12497   12501   12502
   12498   12497   12501   12511   12499   12497   12501   12502
   12499   12497   12501   12511   12500   12497   12501   12502
   12500   12497   12501   12511   12501   12502   12505   12506
   12501   12502   12505   12507   12501   12502   12505   12508
   12501   12511   12508   12505   12501   12511   12508   12509
   12501   12511   12508   12510   12502   12501   12511   12508
   12502   12501   12511   12512   12502   12505   12508   12509
   12502   12505   12508   12510   12502   12505   12508   12511
   12503   12502   12501   12511   12503   12502   12505   12506
   12503   12502   12505   12507   12503   12502   12505   12508
   12504   12502   12501   12511   12504   12502   12505   12506
   12504   12502   12505   12507   12504   12502   12505   12508
   12505   12502   12501   12511   12505   12508   12511   12512
   12506   12505   12508   12509   12506   12505   12508   12510
   12506   12505   12508   12511   12507   12505   12508   12509
   12507   12505   12508   12510   12507   12505   12508   12511
   12509   12508   12511   12512   12510   12508   12511   12512
   12513   12517   12518   12519   12513   12517   12518   12520
   12513   12517   12518   12521   12513   12517   12527   12524
   12513   12517   12527   12528   12514   12513   12517   12518
   12514   12513   12517   12527   12515   12513   12517   12518
   12515   12513   12517   12527   12516   12513   12517   12518
   12516   12513   12517   12527   12517   12518   12521   12522
   12517   12518   12521   12523   12517   12518   12521   12524
   12517   12527   12524   12521   12517   12527   12524   12525
   12517   12527   12524   12526   12518   12517   12527   12524
   12518   12517   12527   12528   12518   12521   12524   12525
   12518   12521   12524   12526   12518   12521   12524   12527
   12519   12518   12517   12527   12519   12518   12521   12522
   12519   12518   12521   12523   12519   12518   12521   12524
   12520   12518   12517   12527   12520   12518   12521   12522
   12520   12518   12521   12523   12520   12518   12521   12524
   12521   12518   12517   12527   12521   12524   12527   12528
   12522   12521   12524   12525   12522   12521   12524   12526
   12522   12521   12524   12527   12523   12521   12524   12525
   12523   12521   12524   12526   12523   12521   12524   12527
   12525   12524   12527   12528   12526   12524   12527   12528
   12529   12533   12534   12535   12529   12533   12534   12536
   12529   12533   12534   12537   12529   12533   12543   12540
   12529   12533   12543   12544   12530   12529   12533   12534
   12530   12529   12533   12543   12531   12529   12533   12534
   12531   12529   12533   12543   12532   12529   12533   12534
   12532   12529   12533   12543   12533   12534   12537   12538
   12533   12534   12537   12539   12533   12534   12537   12540
   12533   12543   12540   12537   12533   12543   12540   12541
   12533   12543   12540   12542   12534   12533   12543   12540
   12534   12533   12543   12544   12534   12537   12540   12541
   12534   12537   12540   12542   12534   12537   12540   12543
   12535   12534   12533   12543   12535   12534   12537   12538
   12535   12534   12537   12539   12535   12534   12537   12540
   12536   12534   12533   12543   12536   12534   12537   12538
   12536   12534   12537   12539   12536   12534   12537   12540
   12537   12534   12533   12543   12537   12540   12543   12544
   12538   12537   12540   12541   12538   12537   12540   12542
   12538   12537   12540   12543   12539   12537   12540   12541
   12539   12537   12540   12542   12539   12537   12540   12543
   12541   12540   12543   12544   12542   12540   12543   12544
   12545   12549   12550   12551   12545   12549   12550   12552
   12545   12549   12550   12553   12545   12549   12559   12556
   12545   12549   12559   12560   12546   12545   12549   12550
   12546   12545   12549   12559   12547   12545   12549   12550
   12547   12545   12549   12559   12548   12545   12549   12550
   12548   12545   12549   12559   12549   12550   12553   12554
   12549   12550   12553   12555   12549   12550   12553   12556
   12549   12559   12556   12553   12549   12559   12556   12557
   12549   12559   12556   12558   12550   12549   12559   12556
   12550   12549   12559   12560   12550   12553   12556   12557
   12550   12553   12556   12558   12550   12553   12556   12559
   12551   12550   12549   12559   12551   12550   12553   12554
   12551   12550   12553   12555   12551   12550   12553   12556
   12552   12550   12549   12559   12552   12550   12553   12554
   12552   12550   12553   12555   12552   12550   12553   12556
   12553   12550   12549   12559   12553   12556   12559   12560
   12554   12553   12556   12557   12554   12553   12556   12558
   12554   12553   12556   12559   12555   12553   12556   12557
   12555   12553   12556   12558   12555   12553   12556   12559
   12557   12556   12559   12560   12558   12556   12559   12560
   12561   12565   12566   12567   12561   12565   12566   12568
   12561   12565   12566   12569   12561   12565   12575   12572
   12561   12565   12575   12576   12562   12561   12565   12566
   12562   12561   12565   12575   12563   12561   12565   12566
   12563   12561   12565   12575   12564   12561   12565   12566
   12564   12561   12565   12575   12565   12566   12569   12570
   12565   12566   12569   12571   12565   12566   12569   12572
   12565   12575   12572   12569   12565   12575   12572   12573
   12565   12575   12572   12574   12566   12565   12575   12572
   12566   12565   12575   12576   12566   12569   12572   12573
   12566   12569   12572   12574   12566   12569   12572   12575
   12567   12566   12565   12575   12567   12566   12569   12570
   12567   12566   12569   12571   12567   12566   12569   12572
   12568   12566   12565   12575   12568   12566   12569   12570
   12568   12566   12569   12571   12568   12566   12569   12572
   12569   12566   12565   12575   12569   12572   12575   12576
   12570   12569   12572   12573   12570   12569   12572   12574
   12570   12569   12572   12575   12571   12569   12572   12573
   12571   12569   12572   12574   12571   12569   12572   12575
   12573   12572   12575   12576   12574   12572   12575   12576
   12577   12581   12582   12583   12577   12581   12582   12584
   12577   12581   12582   12585   12577   12581   12591   12588
   12577   12581   12591   12592   12578   12577   12581   12582
   12578   12577   12581   12591   12579   12577   12581   12582
   12579   12577   12581   12591   12580   12577   12581   12582
   12580   12577   12581   12591   12581   12582   12585   12586
   12581   12582   12585   12587   12581   12582   12585   12588
   12581   12591   12588   12585   12581   12591   12588   12589
   12581   12591   12588   12590   12582   12581   12591   12588
   12582   12581   12591   12592   12582   12585   12588   12589
   12582   12585   12588   12590   12582   12585   12588   12591
   12583   12582   12581   12591   12583   12582   12585   12586
   12583   12582   12585   12587   12583   12582   12585   12588
   12584   12582   12581   12591   12584   12582   12585   12586
   12584   12582   12585   12587   12584   12582   12585   12588
   12585   12582   12581   12591   12585   12588   12591   12592
   12586   12585   12588   12589   12586   12585   12588   12590
   12586   12585   12588   12591   12587   12585   12588   12589
   12587   12585   12588   12590   12587   12585   12588   12591
   12589   12588   12591   12592   12590   12588   12591   12592
   12593   12597   12598   12599   12593   12597   12598   12600
   12593   12597   12598   12601   12593   12597   12607   12604
   12593   12597   12607   12608   12594   12593   12597   12598
   12594   12593   12597   12607   12595   12593   12597   12598
   12595   12593   12597   12607   12596   12593   12597   12598
   12596   12593   12597   12607   12597   12598   12601   12602
   12597   12598   12601   12603   12597   12598   12601   12604
   12597   12607   12604   12601   12597   12607   12604   12605
   12597   12607   12604   12606   12598   12597   12607   12604
   12598   12597   12607   12608   12598   12601   12604   12605
   12598   12601   12604   12606   12598   12601   12604   12607
   12599   12598   12597   12607   12599   12598   12601   12602
   12599   12598   12601   12603   12599   12598   12601   12604
   12600   12598   12597   12607   12600   12598   12601   12602
   12600   12598   12601   12603   12600   12598   12601   12604
   12601   12598   12597   12607   12601   12604   12607   12608
   12602   12601   12604   12605   12602   12601   12604   12606
   12602   12601   12604   12607   12603   12601   12604   12605
   12603   12601   12604   12606   12603   12601   12604   12607
   12605   12604   12607   12608   12606   12604   12607   12608
   12609   12613   12614   12615   12609   12613   12614   12616
   12609   12613   12614   12617   12609   12613   12623   12620
   12609   12613   12623   12624   12610   12609   12613   12614
   12610   12609   12613   12623   12611   12609   12613   12614
   12611   12609   12613   12623   12612   12609   12613   12614
   12612   12609   12613   12623   12613   12614   12617   12618
   12613   12614   12617   12619   12613   12614   12617   12620
   12613   12623   12620   12617   12613   12623   12620   12621
   12613   12623   12620   12622   12614   12613   12623   12620
   12614   12613   12623   12624   12614   12617   12620   12621
   12614   12617   12620   12622   12614   12617   12620   12623
   12615   12614   12613   12623   12615   12614   12617   12618
   12615   12614   12617   12619   12615   12614   12617   12620
   12616   12614   12613   12623   12616   12614   12617   12618
   12616   12614   12617   12619   12616   12614   12617   12620
   12617   12614   12613   12623   12617   12620   12623   12624
   12618   12617   12620   12621   12618   12617   12620   12622
   12618   12617   12620   12623   12619   12617   12620   12621
   12619   12617   12620   12622   12619   12617   12620   12623
   12621   12620   12623   12624   12622   12620   12623   12624
   12625   12629   12630   12631   12625   12629   12630   12632
   12625   12629   12630   12633   12625   12629   12639   12636
   12625   12629   12639   12640   12626   12625   12629   12630
   12626   12625   12629   12639   12627   12625   12629   12630
   12627   12625   12629   12639   12628   12625   12629   12630
   12628   12625   12629   12639   12629   12630   12633   12634
   12629   12630   12633   12635   12629   12630   12633   12636
   12629   12639   12636   12633   12629   12639   12636   12637
   12629   12639   12636   12638   12630   12629   12639   12636
   12630   12629   12639   12640   12630   12633   12636   12637
   12630   12633   12636   12638   12630   12633   12636   12639
   12631   12630   12629   12639   12631   12630   12633   12634
   12631   12630   12633   12635   12631   12630   12633   12636
   12632   12630   12629   12639   12632   12630   12633   12634
   12632   12630   12633   12635   12632   12630   12633   12636
   12633   12630   12629   12639   12633   12636   12639   12640
   12634   12633   12636   12637   12634   12633   12636   12638
   12634   12633   12636   12639   12635   12633   12636   12637
   12635   12633   12636   12638   12635   12633   12636   12639
   12637   12636   12639   12640   12638   12636   12639   12640
   12641   12645   12646   12647   12641   12645   12646   12648
   12641   12645   12646   12649   12641   12645   12655   12652
   12641   12645   12655   12656   12642   12641   12645   12646
   12642   12641   12645   12655   12643   12641   12645   12646
   12643   12641   12645   12655   12644   12641   12645   12646
   12644   12641   12645   12655   12645   12646   12649   12650
   12645   12646   12649   12651   12645   12646   12649   12652
   12645   12655   12652   12649   12645   12655   12652   12653
   12645   12655   12652   12654   12646   12645   12655   12652
   12646   12645   12655   12656   12646   12649   12652   12653
   12646   12649   12652   12654   12646   12649   12652   12655
   12647   12646   12645   12655   12647   12646   12649   12650
   12647   12646   12649   12651   12647   12646   12649   12652
   12648   12646   12645   12655   12648   12646   12649   12650
   12648   12646   12649   12651   12648   12646   12649   12652
   12649   12646   12645   12655   12649   12652   12655   12656
   12650   12649   12652   12653   12650   12649   12652   12654
   12650   12649   12652   12655   12651   12649   12652   12653
   12651   12649   12652   12654   12651   12649   12652   12655
   12653   12652   12655   12656   12654   12652   12655   12656
   12657   12661   12662   12663   12657   12661   12662   12664
   12657   12661   12662   12665   12657   12661   12671   12668
   12657   12661   12671   12672   12658   12657   12661   12662
   12658   12657   12661   12671   12659   12657   12661   12662
   12659   12657   12661   12671   12660   12657   12661   12662
   12660   12657   12661   12671   12661   12662   12665   12666
   12661   12662   12665   12667   12661   12662   12665   12668
   12661   12671   12668   12665   12661   12671   12668   12669
   12661   12671   12668   12670   12662   12661   12671   12668
   12662   12661   12671   12672   12662   12665   12668   12669
   12662   12665   12668   12670   12662   12665   12668   12671
   12663   12662   12661   12671   12663   12662   12665   12666
   12663   12662   12665   12667   12663   12662   12665   12668
   12664   12662   12661   12671   12664   12662   12665   12666
   12664   12662   12665   12667   12664   12662   12665   12668
   12665   12662   12661   12671   12665   12668   12671   12672
   12666   12665   12668   12669   12666   12665   12668   12670
   12666   12665   12668   12671   12667   12665   12668   12669
   12667   12665   12668   12670   12667   12665   12668   12671
   12669   12668   12671   12672   12670   12668   12671   12672
   12673   12677   12678   12679   12673   12677   12678   12680
   12673   12677   12678   12681   12673   12677   12687   12684
   12673   12677   12687   12688   12674   12673   12677   12678
   12674   12673   12677   12687   12675   12673   12677   12678
   12675   12673   12677   12687   12676   12673   12677   12678
   12676   12673   12677   12687   12677   12678   12681   12682
   12677   12678   12681   12683   12677   12678   12681   12684
   12677   12687   12684   12681   12677   12687   12684   12685
   12677   12687   12684   12686   12678   12677   12687   12684
   12678   12677   12687   12688   12678   12681   12684   12685
   12678   12681   12684   12686   12678   12681   12684   12687
   12679   12678   12677   12687   12679   12678   12681   12682
   12679   12678   12681   12683   12679   12678   12681   12684
   12680   12678   12677   12687   12680   12678   12681   12682
   12680   12678   12681   12683   12680   12678   12681   12684
   12681   12678   12677   12687   12681   12684   12687   12688
   12682   12681   12684   12685   12682   12681   12684   12686
   12682   12681   12684   12687   12683   12681   12684   12685
   12683   12681   12684   12686   12683   12681   12684   12687
   12685   12684   12687   12688   12686   12684   12687   12688
   12689   12693   12694   12695   12689   12693   12694   12696
   12689   12693   12694   12697   12689   12693   12703   12700
   12689   12693   12703   12704   12690   12689   12693   12694
   12690   12689   12693   12703   12691   12689   12693   12694
   12691   12689   12693   12703   12692   12689   12693   12694
   12692   12689   12693   12703   12693   12694   12697   12698
   12693   12694   12697   12699   12693   12694   12697   12700
   12693   12703   12700   12697   12693   12703   12700   12701
   12693   12703   12700   12702   12694   12693   12703   12700
   12694   12693   12703   12704   12694   12697   12700   12701
   12694   12697   12700   12702   12694   12697   12700   12703
   12695   12694   12693   12703   12695   12694   12697   12698
   12695   12694   12697   12699   12695   12694   12697   12700
   12696   12694   12693   12703   12696   12694   12697   12698
   12696   12694   12697   12699   12696   12694   12697   12700
   12697   12694   12693   12703   12697   12700   12703   12704
   12698   12697   12700   12701   12698   12697   12700   12702
   12698   12697   12700   12703   12699   12697   12700   12701
   12699   12697   12700   12702   12699   12697   12700   12703
   12701   12700   12703   12704   12702   12700   12703   12704
   12705   12709   12710   12711   12705   12709   12710   12712
   12705   12709   12710   12713   12705   12709   12719   12716
   12705   12709   12719   12720   12706   12705   12709   12710
   12706   12705   12709   12719   12707   12705   12709   12710
   12707   12705   12709   12719   12708   12705   12709   12710
   12708   12705   12709   12719   12709   12710   12713   12714
   12709   12710   12713   12715   12709   12710   12713   12716
   12709   12719   12716   12713   12709   12719   12716   12717
   12709   12719   12716   12718   12710   12709   12719   12716
   12710   12709   12719   12720   12710   12713   12716   12717
   12710   12713   12716   12718   12710   12713   12716   12719
   12711   12710   12709   12719   12711   12710   12713   12714
   12711   12710   12713   12715   12711   12710   12713   12716
   12712   12710   12709   12719   12712   12710   12713   12714
   12712   12710   12713   12715   12712   12710   12713   12716
   12713   12710   12709   12719   12713   12716   12719   12720
   12714   12713   12716   12717   12714   12713   12716   12718
   12714   12713   12716   12719   12715   12713   12716   12717
   12715   12713   12716   12718   12715   12713   12716   12719
   12717   12716   12719   12720   12718   12716   12719   12720
   12721   12725   12726   12727   12721   12725   12726   12728
   12721   12725   12726   12729   12721   12725   12735   12732
   12721   12725   12735   12736   12722   12721   12725   12726
   12722   12721   12725   12735   12723   12721   12725   12726
   12723   12721   12725   12735   12724   12721   12725   12726
   12724   12721   12725   12735   12725   12726   12729   12730
   12725   12726   12729   12731   12725   12726   12729   12732
   12725   12735   12732   12729   12725   12735   12732   12733
   12725   12735   12732   12734   12726   12725   12735   12732
   12726   12725   12735   12736   12726   12729   12732   12733
   12726   12729   12732   12734   12726   12729   12732   12735
   12727   12726   12725   12735   12727   12726   12729   12730
   12727   12726   12729   12731   12727   12726   12729   12732
   12728   12726   12725   12735   12728   12726   12729   12730
   12728   12726   12729   12731   12728   12726   12729   12732
   12729   12726   12725   12735   12729   12732   12735   12736
   12730   12729   12732   12733   12730   12729   12732   12734
   12730   12729   12732   12735   12731   12729   12732   12733
   12731   12729   12732   12734   12731   12729   12732   12735
   12733   12732   12735   12736   12734   12732   12735   12736
   12737   12741   12742   12743   12737   12741   12742   12744
   12737   12741   12742   12745   12737   12741   12751   12748
   12737   12741   12751   12752   12738   12737   12741   12742
   12738   12737   12741   12751   12739   12737   12741   12742
   12739   12737   12741   12751   12740   12737   12741   12742
   12740   12737   12741   12751   12741   12742   12745   12746
   12741   12742   12745   12747   12741   12742   12745   12748
   12741   12751   12748   12745   12741   12751   12748   12749
   12741   12751   12748   12750   12742   12741   12751   12748
   12742   12741   12751   12752   12742   12745   12748   12749
   12742   12745   12748   12750   12742   12745   12748   12751
   12743   12742   12741   12751   12743   12742   12745   12746
   12743   12742   12745   12747   12743   12742   12745   12748
   12744   12742   12741   12751   12744   12742   12745   12746
   12744   12742   12745   12747   12744   12742   12745   12748
   12745   12742   12741   12751   12745   12748   12751   12752
   12746   12745   12748   12749   12746   12745   12748   12750
   12746   12745   12748   12751   12747   12745   12748   12749
   12747   12745   12748   12750   12747   12745   12748   12751
   12749   12748   12751   12752   12750   12748   12751   12752
   12753   12757   12758   12759   12753   12757   12758   12760
   12753   12757   12758   12761   12753   12757   12767   12764
   12753   12757   12767   12768   12754   12753   12757   12758
   12754   12753   12757   12767   12755   12753   12757   12758
   12755   12753   12757   12767   12756   12753   12757   12758
   12756   12753   12757   12767   12757   12758   12761   12762
   12757   12758   12761   12763   12757   12758   12761   12764
   12757   12767   12764   12761   12757   12767   12764   12765
   12757   12767   12764   12766   12758   12757   12767   12764
   12758   12757   12767   12768   12758   12761   12764   12765
   12758   12761   12764   12766   12758   12761   12764   12767
   12759   12758   12757   12767   12759   12758   12761   12762
   12759   12758   12761   12763   12759   12758   12761   12764
   12760   12758   12757   12767   12760   12758   12761   12762
   12760   12758   12761   12763   12760   12758   12761   12764
   12761   12758   12757   12767   12761   12764   12767   12768
   12762   12761   12764   12765   12762   12761   12764   12766
   12762   12761   12764   12767   12763   12761   12764   12765
   12763   12761   12764   12766   12763   12761   12764   12767
   12765   12764   12767   12768   12766   12764   12767   12768
   12769   12773   12774   12775   12769   12773   12774   12776
   12769   12773   12774   12777   12769   12773   12783   12780
   12769   12773   12783   12784   12770   12769   12773   12774
   12770   12769   12773   12783   12771   12769   12773   12774
   12771   12769   12773   12783   12772   12769   12773   12774
   12772   12769   12773   12783   12773   12774   12777   12778
   12773   12774   12777   12779   12773   12774   12777   12780
   12773   12783   12780   12777   12773   12783   12780   12781
   12773   12783   12780   12782   12774   12773   12783   12780
   12774   12773   12783   12784   12774   12777   12780   12781
   12774   12777   12780   12782   12774   12777   12780   12783
   12775   12774   12773   12783   12775   12774   12777   12778
   12775   12774   12777   12779   12775   12774   12777   12780
   12776   12774   12773   12783   12776   12774   12777   12778
   12776   12774   12777   12779   12776   12774   12777   12780
   12777   12774   12773   12783   12777   12780   12783   12784
   12778   12777   12780   12781   12778   12777   12780   12782
   12778   12777   12780   12783   12779   12777   12780   12781
   12779   12777   12780   12782   12779   12777   12780   12783
   12781   12780   12783   12784   12782   12780   12783   12784
   12785   12789   12790   12791   12785   12789   12790   12792
   12785   12789   12790   12793   12785   12789   12799   12796
   12785   12789   12799   12800   12786   12785   12789   12790
   12786   12785   12789   12799   12787   12785   12789   12790
   12787   12785   12789   12799   12788   12785   12789   12790
   12788   12785   12789   12799   12789   12790   12793   12794
   12789   12790   12793   12795   12789   12790   12793   12796
   12789   12799   12796   12793   12789   12799   12796   12797
   12789   12799   12796   12798   12790   12789   12799   12796
   12790   12789   12799   12800   12790   12793   12796   12797
   12790   12793   12796   12798   12790   12793   12796   12799
   12791   12790   12789   12799   12791   12790   12793   12794
   12791   12790   12793   12795   12791   12790   12793   12796
   12792   12790   12789   12799   12792   12790   12793   12794
   12792   12790   12793   12795   12792   12790   12793   12796
   12793   12790   12789   12799   12793   12796   12799   12800
   12794   12793   12796   12797   12794   12793   12796   12798
   12794   12793   12796   12799   12795   12793   12796   12797
   12795   12793   12796   12798   12795   12793   12796   12799
   12797   12796   12799   12800   12798   12796   12799   12800

     800 !NIMPHI: impropers
      15      12       5      16      31      28      21      32
      47      44      37      48      63      60      53      64
      79      76      69      80      95      92      85      96
     111     108     101     112     127     124     117     128
     143     140     133     144     159     156     149     160
     175     172     165     176     191     188     181     192
     207     204     197     208     223     220     213     224
     239     236     229     240     255     252     245     256
     271     268     261     272     287     284     277     288
     303     300     293     304     319     316     309     320
     335     332     325     336     351     348     341     352
     367     364     357     368     383     380     373     384
     399     396     389     400     415     412     405     416
     431     428     421     432     447     444     437     448
     463     460     453     464     479     476     469     480
     495     492     485     496     511     508     501     512
     527     524     517     528     543     540     533     544
     559     556     549     560     575     572     565     576
     591     588     581     592     607     604     597     608
     623     620     613     624     639     636     629     640
     655     652     645     656     671     668     661     672
     687     684     677     688     703     700     693     704
     719     716     709     720     735     732     725     736
     751     748     741     752     767     764     757     768
     783     780     773     784     799     796     789     800
     815     812     805     816     831     828     821     832
     847     844     837     848     863     860     853     864
     879     876     869     880     895     892     885     896
     911     908     901     912     927     924     917     928
     943     940     933     944     959     956     949     960
     975     972     965     976     991     988     981     992
    1007    1004     997    1008    1023    1020    1013    1024
    1039    1036    1029    1040    1055    1052    1045    1056
    1071    1068    1061    1072    1087    1084    1077    1088
    1103    1100    1093    1104    1119    1116    1109    1120
    1135    1132    1125    1136    1151    1148    1141    1152
    1167    1164    1157    1168    1183    1180    1173    1184
    1199    1196    1189    1200    1215    1212    1205    1216
    1231    1228    1221    1232    1247    1244    1237    1248
    1263    1260    1253    1264    1279    1276    1269    1280
    1295    1292    1285    1296    1311    1308    1301    1312
    1327    1324    1317    1328    1343    1340    1333    1344
    1359    1356    1349    1360    1375    1372    1365    1376
    1391    1388    1381    1392    1407    1404    1397    1408
    1423    1420    1413    1424    1439    1436    1429    1440
    1455    1452    1445    1456    1471    1468    1461    1472
    1487    1484    1477    1488    1503    1500    1493    1504
    1519    1516    1509    1520    1535    1532    1525    1536
    1551    1548    1541    1552    1567    1564    1557    1568
    1583    1580    1573    1584    1599    1596    1589    1600
    1615    1612    1605    1616    1631    1628    1621    1632
    1647    1644    1637    1648    1663    1660    1653    1664
    1679    1676    1669    1680    1695    1692    1685    1696
    1711    1708    1701    1712    1727    1724    1717    1728
    1743    1740    1733    1744    1759    1756    1749    1760
    1775    1772    1765    1776    1791    1788    1781    1792
    1807    1804    1797    1808    1823    1820    1813    1824
    1839    1836    1829    1840    1855    1852    1845    1856
    1871    1868    1861    1872    1887    1884    1877    1888
    1903    1900    1893    1904    1919    1916    1909    1920
    1935    1932    1925    1936    1951    1948    1941    1952
    1967    1964    1957    1968    1983    1980    1973    1984
    1999    1996    1989    2000    2015    2012    2005    2016
    2031    2028    2021    2032    2047    2044    2037    2048
    2063    2060    2053    2064    2079    2076    2069    2080
    2095    2092    2085    2096    2111    2108    2101    2112
    2127    2124    2117    2128    2143    2140    2133    2144
    2159    2156    2149    2160    2175    2172    2165    2176
    2191    2188    2181    2192    2207    2204    2197    2208
    2223    2220    2213    2224    2239    2236    2229    2240
    2255    2252    2245    2256    2271    2268    2261    2272
    2287    2284    2277    2288    2303    2300    2293    2304
    2319    2316    2309    2320    2335    2332    2325    2336
    2351    2348    2341    2352    2367    2364    2357    2368
    2383    2380    2373    2384    2399    2396    2389    2400
    2415    2412    2405    2416    2431    2428    2421    2432
    2447    2444    2437    2448    2463    2460    2453    2464
    2479    2476    2469    2480    2495    2492    2485    2496
    2511    2508    2501    2512    2527    2524    2517    2528
    2543    2540    2533    2544    2559    2556    2549    2560
    2575    2572    2565    2576    2591    2588    2581    2592
    2607    2604    2597    2608    2623    2620    2613    2624
    2639    2636    2629    2640    2655    2652    2645    2656
    2671    2668    2661    2672    2687    2684    2677    2688
    2703    2700    2693    2704    2719    2716    2709    2720
    2735    2732    2725    2736    2751    2748    2741    2752
    2767    2764    2757    2768    2783    2780    2773    2784
    2799    2796    2789    2800    2815    2812    2805    2816
    2831    2828    2821    2832    2847    2844    2837    2848
    2863    2860    2853    2864    2879    2876    2869    2880
    2895    2892    2885    2896    2911    2908    2901    2912
    2927    2924    2917    2928    2943    2940    2933    2944
    2959    2956    2949    2960    2975    2972    2965    2976
    2991    2988    2981    2992    3007    3004    2997    3008
    3023    3020    3013    3024    3039    3036    3029    3040
    3055    3052    3045    3056    3071    3068    3061    3072
    3087    3084    3077    3088    3103    3100    3093    3104
    3119    3116    3109    3120    3135    3132    3125    3136
    3151    3148    3141    3152    3167    3164    3157    3168
    3183    3180    3173    3184    3199    3196    3189    3200
    3215    3212    3205    3216    3231    3228    3221    3232
    3247    3244    3237    3248    3263    3260    3253    3264
    3279    3276    3269    3280    3295    3292    3285    3296
    3311    3308    3301    3312    3327    3324    3317    3328
    3343    3340    3333    3344    3359    3356    3349    3360
    3375    3372    3365    3376    3391    3388    3381    3392
    3407    3404    3397    3408    3423    3420    3413    3424
    3439    3436    3429    3440    3455    3452    3445    3456
    3471    3468    3461    3472    3487    3484    3477    3488
    3503    3500    3493    3504    3519    3516    3509    3520
    3535    3532    3525    3536    3551    3548    3541    3552
    3567    3564    3557    3568    3583    3580    3573    3584
    3599    3596    3589    3600    3615    3612    3605    3616
    3631    3628    3621    3632    3647    3644    3637    3648
    3663    3660    3653    3664    3679    3676    3669    3680
    3695    3692    3685    3696    3711    3708    3701    3712
    3727    3724    3717    3728    3743    3740    3733    3744
    3759    3756    3749    3760    3775    3772    3765    3776
    3791    3788    3781    3792    3807    3804    3797    3808
    3823    3820    3813    3824    3839    3836    3829    3840
    3855    3852    3845    3856    3871    3868    3861    3872
    3887    3884    3877    3888    3903    3900    3893    3904
    3919    3916    3909    3920    3935    3932    3925    3936
    3951    3948    3941    3952    3967    3964    3957    3968
    3983    3980    3973    3984    3999    3996    3989    4000
    4015    4012    4005    4016    4031    4028    4021    4032
    4047    4044    4037    4048    4063    4060    4053    4064
    4079    4076    4069    4080    4095    4092    4085    4096
    4111    4108    4101    4112    4127    4124    4117    4128
    4143    4140    4133    4144    4159    4156    4149    4160
    4175    4172    4165    4176    4191    4188    4181    4192
    4207    4204    4197    4208    4223    4220    4213    4224
    4239    4236    4229    4240    4255    4252    4245    4256
    4271    4268    4261    4272    4287    4284    4277    4288
    4303    4300    4293    4304    4319    4316    4309    4320
    4335    4332    4325    4336    4351    4348    4341    4352
    4367    4364    4357    4368    4383    4380    4373    4384
    4399    4396    4389    4400    4415    4412    4405    4416
    4431    4428    4421    4432    4447    4444    4437    4448
    4463    4460    4453    4464    4479    4476    4469    4480
    4495    4492    4485    4496    4511    4508    4501    4512
    4527    4524    4517    4528    4543    4540    4533    4544
    4559    4556    4549    4560    4575    4572    4565    4576
    4591    4588    4581    4592    4607    4604    4597    4608
    4623    4620    4613    4624    4639    4636    4629    4640
    4655    4652    4645    4656    4671    4668    4661    4672
    4687    4684    4677    4688    4703    4700    4693    4704
    4719    4716    4709    4720    4735    4732    4725    4736
    4751    4748    4741    4752    4767    4764    4757    4768
    4783    4780    4773    4784    4799    4796    4789    4800
    4815    4812    4805    4816    4831    4828    4821    4832
    4847    4844    4837    4848    4863    4860    4853    4864
    4879    4876    4869    4880    4895    4892    4885    4896
    4911    4908    4901    4912    4927    4924    4917    4928
    4943    4940    4933    4944    4959    4956    4949    4960
    4975    4972    4965    4976    4991    4988    4981    4992
    5007    5004    4997    5008    5023    5020    5013    5024
    5039    5036    5029    5040    5055    5052    5045    5056
    5071    5068    5061    5072    5087    5084    5077    5088
    5103    5100    5093    5104    5119    5116    5109    5120
    5135    5132    5125    5136    5151    5148    5141    5152
    5167    5164    5157    5168    5183    5180    5173    5184
    5199    5196    5189    5200    5215    5212    5205    5216
    5231    5228    5221    5232    5247    5244    5237    5248
    5263    5260    5253    5264    5279    5276    5269    5280
    5295    5292    5285    5296    5311    5308    5301    5312
    5327    5324    5317    5328    5343    5340    5333    5344
    5359    5356    5349    5360    5375    5372    5365    5376
    5391    5388    5381    5392    5407    5404    5397    5408
    5423    5420    5413    5424    5439    5436    5429    5440
    5455    5452    5445    5456    5471    5468    5461    5472
    5487    5484    5477    5488    5503    5500    5493    5504
    5519    5516    5509    5520    5535    5532    5525    5536
    5551    5548    5541    5552    5567    5564    5557    5568
    5583    5580    5573    5584    5599    5596    5589    5600
    5615    5612    5605    5616    5631    5628    5621    5632
    5647    5644    5637    5648    5663    5660    5653    5664
    5679    5676    5669    5680    5695    5692    5685    5696
    5711    5708    5701    5712    5727    5724    5717    5728
    5743    5740    5733    5744    5759    5756    5749    5760
    5775    5772    5765    5776    5791    5788    5781    5792
    5807    5804    5797    5808    5823    5820    5813    5824
    5839    5836    5829    5840    5855    5852    5845    5856
    5871    5868    5861    5872    5887    5884    5877    5888
    5903    5900    5893    5904    5919    5916    5909    5920
    5935    5932    5925    5936    5951    5948    5941    5952
    5967    5964    5957    5968    5983    5980    5973    5984
    5999    5996    5989    6000    6015    6012    6005    6016
    6031    6028    6021    6032    6047    6044    6037    6048
    6063    6060    6053    6064    6079    6076    6069    6080
    6095    6092    6085    6096    6111    6108    6101    6112
    6127    6124    6117    6128    6143    6140    6133    6144
    6159    6156    6149    6160    6175    6172    6165    6176
    6191    6188    6181    6192    6207    6204    6197    6208
    6223    6220    6213    6224    6239    6236    6229    6240
    6255    6252    6245    6256    6271    6268    6261    6272
    6287    6284    6277    6288    6303    6300    6293    6304
    6319    6316    6309    6320    6335    6332    6325    6336
    6351    6348    6341    6352    6367    6364    6357    6368
    6383    6380    6373    6384    6399    6396    6389    6400
    6415    6412    6405    6416    6431    6428    6421    6432
    6447    6444    6437    6448    6463    6460    6453    6464
    6479    6476    6469    6480    6495    6492    6485    6496
    6511    6508    6501    6512    6527    6524    6517    6528
    6543    6540    6533    6544    6559    6556    6549    6560
    6575    6572    6565    6576    6591    6588    6581    6592
    6607    6604    6597    6608    6623    6620    6613    6624
    6639    6636    6629    6640    6655    6652    6645    6656
    6671    6668    6661    6672    6687    6684    6677    6688
    6703    6700    6693    6704    6719    6716    6709    6720
    6735    6732    6725    6736    6751    6748    6741    6752
    6767    6764    6757    6768    6783    6780    6773    6784
    6799    6796    6789    6800    6815    6812    6805    6816
    6831    6828    6821    6832    6847    6844    6837    6848
    6863    6860    6853    6864    6879    6876    6869    6880
    6895    6892    6885    6896    6911    6908    6901    6912
    6927    6924    6917    6928    6943    6940    6933    6944
    6959    6956    6949    6960    6975    6972    6965    6976
    6991    6988    6981    6992    7007    7004    6997    7008
    7023    7020    7013    7024    7039    7036    7029    7040
    7055    7052    7045    7056    7071    7068    7061    7072
    7087    7084    7077    7088    7103    7100    7093    7104
    7119    7116    7109    7120    7135    7132    7125    7136
    7151    7148    7141    7152    7167    7164    7157    7168
    7183    7180    7173    7184    7199    7196    7189    7200
    7215    7212    7205    7216    7231    7228    7221    7232
    7247    7244    7237    7248    7263    7260    7253    7264
    7279    7276    7269    7280    7295    7292    7285    7296
    7311    7308    7301    7312    7327    7324    7317    7328
    7343    7340    7333    7344    7359    7356    7349    7360
    7375    7372    7365    7376    7391    7388    7381    7392
    7407    7404    7397    7408    7423    7420    7413    7424
    7439    7436    7429    7440    7455    7452    7445    7456
    7471    7468    7461    7472    7487    7484    7477    7488
    7503    7500    7493    7504    7519    7516    7509    7520
    7535    7532    7525    7536    7551    7548    7541    7552
    7567    7564    7557    7568    7583    7580    7573    7584
    7599    7596    7589    7600    7615    7612    7605    7616
    7631    7628    7621    7632    7647    7644    7637    7648
    7663    7660    7653    7664    7679    7676    7669    7680
    7695    7692    7685    7696    7711    7708    7701    7712
    7727    7724    7717    7728    7743    7740    7733    7744
    7759    7756    7749    7760    7775    7772    7765    7776
    7791    7788    7781    7792    7807    7804    7797    7808
    7823    7820    7813    7824    7839    7836    7829    7840
    7855    7852    7845    7856    7871    7868    7861    7872
    7887    7884    7877    7888    7903    7900    7893    7904
    7919    7916    7909    7920    7935    7932    7925    7936
    7951    7948    7941    7952    7967    7964    7957    7968
    7983    7980    7973    7984    7999    7996    7989    8000
    8015    8012    8005    8016    8031    8028    8021    8032
    8047    8044    8037    8048    8063    8060    8053    8064
    8079    8076    8069    8080    8095    8092    8085    8096
    8111    8108    8101    8112    8127    8124    8117    8128
    8143    8140    8133    8144    8159    8156    8149    8160
    8175    8172    8165    8176    8191    8188    8181    8192
    8207    8204    8197    8208    8223    8220    8213    8224
    8239    8236    8229    8240    8255    8252    8245    8256
    8271    8268    8261    8272    8287    8284    8277    8288
    8303    8300    8293    8304    8319    8316    8309    8320
    8335    8332    8325    8336    8351    8348    8341    8352
    8367    8364    8357    8368    8383    8380    8373    8384
    8399    8396    8389    8400    8415    8412    8405    8416
    8431    8428    8421    8432    8447    8444    8437    8448
    8463    8460    8453    8464    8479    8476    8469    8480
    8495    8492    8485    8496    8511    8508    8501    8512
    8527    8524    8517    8528    8543    8540    8533    8544
    8559    8556    8549    8560    8575    8572    8565    8576
    8591    8588    8581    8592    8607    8604    8597    8608
    8623    8620    8613    8624    8639    8636    8629    8640
    8655    8652    8645    8656    8671    8668    8661    8672
    8687    8684    8677    8688    8703    8700    8693    8704
    8719    8716    8709    8720    8735    8732    8725    8736
    8751    8748    8741    8752    8767    8764    8757    8768
    8783    8780    8773    8784    8799    8796    8789    8800
    8815    8812    8805    8816    8831    8828    8821    8832
    8847    8844    8837    8848    8863    8860    8853    8864
    8879    8876    8869    8880    8895    8892    8885    8896
    8911    8908    8901    8912    8927    8924    8917    8928
    8943    8940    8933    8944    8959    8956    8949    8960
    8975    8972    8965    8976    8991    8988    8981    8992
    9007    9004    8997    9008    9023    9020    9013    9024
    9039    9036    9029    9040    9055    9052    9045    9056
    9071    9068    9061    9072    9087    9084    9077    9088
    9103    9100    9093    9104    9119    9116    9109    9120
    9135    9132    9125    9136    9151    9148    9141    9152
    9167    9164    9157    9168    9183    9180    9173    9184
    9199    9196    9189    9200    9215    9212    9205    9216
    9231    9228    9221    9232    9247    9244    9237    9248
    9263    9260    9253    9264    9279    9276    9269    9280
    9295    9292    9285    9296    9311    9308    9301    9312
    9327    9324    9317    9328    9343    9340    9333    9344
    9359    9356    9349    9360    9375    9372    9365    9376
    9391    9388    9381    9392    9407    9404    9397    9408
    9423    9420    9413    9424    9439    9436    9429    9440
    9455    9452    9445    9456    9471    9468    9461    9472
    9487    9484    9477    9488    9503    9500    9493    9504
    9519    9516    9509    9520    9535    9532    9525    9536
    9551    9548    9541    9552    9567    9564    9557    9568
    9583    9580    9573    9584    9599    9596    9589    9600
    9615    9612    9605    9616    9631    9628    9621    9632
    9647    9644    9637    9648    9663    9660    9653    9664
    9679    9676    9669    9680    9695    9692    9685    9696
    9711    9708    9701    9712    9727    9724    9717    9728
    9743    9740    9733    9744    9759    9756    9749    9760
    9775    9772    9765    9776    9791    9788    9781    9792
    9807    9804    9797    9808    9823    9820    9813    9824
    9839    9836    9829    9840    9855    9852    9845    9856
    9871    9868    9861    9872    9887    9884    9877    9888
    9903    9900    9893    9904    9919    9916    9909    9920
    9935    9932    9925    9936    9951    9948    9941    9952
    9967    9964    9957    9968    9983    9980    9973    9984
    9999    9996    9989   10000   10015   10012   10005   10016
   10031   10028   10021   10032   10047   10044   10037   10048
   10063   10060   10053   10064   10079   10076   10069   10080
   10095   10092   10085   10096   10111   10108   10101   10112
   10127   10124   10117   10128   10143   10140   10133   10144
   10159   10156   10149   10160   10175   10172   10165   10176
   10191   10188   10181   10192   10207   10204   10197   10208
   10223   10220   10213   10224   10239   10236   10229   10240
   10255   10252   10245   10256   10271   10268   10261   10272
   10287   10284   10277   10288   10303   10300   10293   10304
   10319   10316   10309   10320   10335   10332   10325   10336
   10351   10348   10341   10352   10367   10364   10357   10368
   10383   10380   10373   10384   10399   10396   10389   10400
   10415   10412   10405   10416   10431   10428   10421   10432
   10447   10444   10437   10448   10463   10460   10453   10464
   10479   10476   10469   10480   10495   10492   10485   10496
   10511   10508   10501   10512   10527   10524   10517   10528
   10543   10540   10533   10544   10559   10556   10549   10560
   10575   10572   10565   10576   10591   10588   10581   10592
   10607   10604   10597   10608   10623   10620   10613   10624
   10639   10636   10629   10640   10655   10652   10645   10656
   10671   10668   10661   10672   10687   10684   10677   10688
   10703   10700   10693   10704   10719   10716   10709   10720
   10735   10732   10725   10736   10751   10748   10741   10752
   10767   10764   10757   10768   10783   10780   10773   10784
   10799   10796   10789   10800   10815   10812   10805   10816
   10831   10828   10821   10832   10847   10844   10837   10848
   10863   10860   10853   10864   10879   10876   10869   10880
   10895   10892   10885   10896   10911   10908   10901   10912
   10927   10924   10917   10928   10943   10940   10933   10944
   10959   10956   10949   10960   10975   10972   10965   10976
   10991   10988   10981   10992   11007   11004   10997   11008
   11023   11020   11013   11024   11039   11036   11029   11040
   11055   11052   11045   11056   11071   11068   11061   11072
   11087   11084   11077   11088   11103   11100   11093   11104
   11119   11116   11109   11120   11135   11132   11125   11136
   11151   11148   11141   11152   11167   11164   11157   11168
   11183   11180   11173   11184   11199   11196   11189   11200
   11215   11212   11205   11216   11231   11228   11221   11232
   11247   11244   11237   11248   11263   11260   11253   11264
   11279   11276   11269   11280   11295   11292   11285   11296
   11311   11308   11301   11312   11327   11324   11317   11328
   11343   11340   11333   11344   11359   11356   11349   11360
   11375   11372   11365   11376   11391   11388   11381   11392
   11407   11404   11397   11408   11423   11420   11413   11424
   11439   11436   11429   11440   11455   11452   11445   11456
   11471   11468   11461   11472   11487   11484   11477   11488
   11503   11500   11493   11504   11519   11516   11509   11520
   11535   11532   11525   11536   11551   11548   11541   11552
   11567   11564   11557   11568   11583   11580   11573   11584
   11599   11596   11589   11600   11615   11612   11605   11616
   11631   11628   11621   11632   11647   11644   11637   11648
   11663   11660   11653   11664   11679   11676   11669   11680
   11695   11692   11685   11696   11711   11708   11701   11712
   11727   11724   11717   11728   11743   11740   11733   11744
   11759   11756   11749   11760   11775   11772   11765   11776
   11791   11788   11781   11792   11807   11804   11797   11808
   11823   11820   11813   11824   11839   11836   11829   11840
   11855   11852   11845   11856   11871   11868   11861   11872
   11887   11884   11877   11888   11903   11900   11893   11904
   11919   11916   11909   11920   11935   11932   11925   11936
   11951   11948   11941   11952   11967   11964   11957   11968
   11983   11980   11973   11984   11999   11996   11989   12000
   12015   12012   12005   12016   12031   12028   12021   12032
   12047   12044   12037   12048   12063   12060   12053   12064
   12079   12076   12069   12080   12095   12092   12085   12096
   12111   12108   12101   12112   12127   12124   12117   12128
   12143   12140   12133   12144   12159   12156   12149   12160
   12175   12172   12165   12176   12191   12188   12181   12192
   12207   12204   12197   12208   12223   12220   12213   12224
   12239   12236   12229   12240   12255   12252   12245   12256
   12271   12268   12261   12272   12287   12284   12277   12288
   12303   12300   12293   12304   12319   12316   12309   12320
   12335   12332   12325   12336   12351   12348   12341   12352
   12367   12364   12357   12368   12383   12380   12373   12384
   12399   12396   12389   12400   12415   12412   12405   12416
   12431   12428   12421   12432   12447   12444   12437   12448
   12463   12460   12453   12464   12479   12476   12469   12480
   12495   12492   12485   12496   12511   12508   12501   12512
   12527   12524   12517   12528   12543   12540   12533   12544
   12559   12556   12549   12560   12575   12572   12565   12576
   12591   12588   12581   12592   12607   12604   12597   12608
   12623   12620   12613   12624   12639   12636   12629   12640
   12655   12652   12645   12656   12671   12668   12661   12672
   12687   12684   12677   12688   12703   12700   12693   12704
   12719   12716   12709   12720   12735   12732   12725   12736
   12751   12748   12741   12752   12767   12764   12757   12768
   12783   12780   12773   12784   12799   12796   12789   12800

       0 !NDON: donors

       0 !NACC: acceptors

       0 !NNB

       0       0       0       0       0       0       0       0
       0       0       0       0       0       0       0       0
       0       0       0       0       0       0       0       0
       0       0       0       0       0       0       0       0
       0       0       0       0       0       0       0       0
       0       0       0       0       0       0       0       0
       0       0       0       0       0       0       0       0
       0       0       0       0       0       0       0       0
       0       0       0       0       0       0       0       0
       0       0       0       0       0       0       0       0
       0       0       0       0       0       0       0       0
       0       0       0       0       0       0       0       0
       0       0       0       0       0       0       0       0
       0       0       0       0       0       0       0       0
       0       0       0       0       0       0       0       0
       0       0       0       0       0       0       0       0
       0       0       0       0       0       0       0       0
       0       0       0       0       0       0       0       0
       0       0       0       0       0       0       0       0
       0       0       0       0       0       0       0       0
       0       0       0       0       0       0       0       0
       0       0       0       0       0       0       0       0
       0       0       0       0       0       0       0       0
       0       0       0       0       0       0       0       0
       0       0       0       0       0       0       0       0
       0       0       0       0       0       0       0       0
       0       0       0       0       0       0       0       0
       0       0       0       0       0       0       0       0
       0       0       0       0       0       0       0       0
       0       0       0       0       0       0       0       0
       0       0       0       0       0       0       0       0
       0       0       0       0       0       0       0       0
       0       0       0       0       0       0       0       0
       0       0       0       0       0       0       0       0
       0       0       0       0       0       0       0       0
       0       0       0       0       0       0       0       0
       0       0       0       0       0       0       0       0
       0       0       0       0       0       0       0       0
       0       0       0       0       0       0       0       0
       0       0       0       0       0       0       0       0
       0       0       0       0       0       0       0       0
       0       0       0       0       0       0       0       0
       0       0       0       0       0       0       0       0
       0       0       0       0       0       0       0       0
       0       0       0       0       0       0       0       0
       0       0       0       0       0       0       0       0
       0       0       0       0       0       0       0       0
       0       0       0       0       0       0       0       0
       0       0       0       0       0       0       0       0
       0       0       0       0       0       0       0       0
       0       0       0       0       0       0       0       0
       0       0       0       0       0       0       0       0
       0       0       0       0       0       0       0       0
       0       0       0       0       0       0       0       0
       0       0       0       0       0       0       0       0
       0       0       0       0       0       0       0       0
       0       0       0       0       0       0       0       0
       0       0       0       0       0       0       0       0
       0       0       0       0       0       0       0       0
       0       0       0       0       0       0       0       0
       0       0       0       0       0       0       0       0
       0       0       0       0       0       0       0       0
       0       0       0       0       0       0       0       0
       0       0       0       0       0       0       0       0
       0       0       0       0       0       0       0       0
       0       0       0       0       0       0       0       0
       0       0       0       0       0       0       0       0
       0       0       0       0       0       0       0       0
       0       0       0       0       0       0       0       0
       0       0       0       0       0       0       0       0
       0       0       0       0       0       0       0       0
       0       0       0       0       0       0       0       0
       0       0       0       0       0       0       0       0
       0       0       0       0       0       0       0       0
       0       0       0       0       0       0       0       0
       0       0       0       0       0       0       0       0
       0       0       0       0       0       0       0       0
       0       0       0       0       0       0       0       0
       0       0       0       0       0       0       0       0
       0       0       0       0       0       0       0       0
       0       0       0       0       0       0       0       0
       0       0       0       0       0       0       0       0
       0       0       0       0       0       0       0       0
       0       0       0       0       0       0       0       0
       0       0       0       0       0       0       0       0
       0       0       0       0       0       0       0       0
       0       0       0       0       0       0       0       0
       0       0       0       0       0       0       0       0
       0       0       0       0       0       0       0       0
       0       0       0       0       0       0       0       0
       0       0       0       0       0       0       0       0
       0       0       0       0       0       0       0       0
       0       0       0       0       0       0       0       0
       0       0       0       0       0       0       0       0
       0       0       0       0       0       0       0       0
       0       0       0       0       0       0       0       0
       0       0       0       0       0       0       0       0
       0       0       0       0       0       0       0       0
       0       0       0       0       0       0       0       0
       0       0       0       0       0       0       0       0
       0       0       0       0       0       0       0       0
       0       0       0       0       0       0       0       0
       0       0       0       0       0       0       0       0
       0       0       0       0       0       0       0       0
       0       0       0       0       0       0       0       0
       0       0       0       0       0       0       0       0
       0       0       0       0       0       0       0       0
       0       0       0       0       0       0       0       0
       0       0       0       0       0       0       0       0
       0       0       0       0       0       0       0       0
       0       0       0       0       0       0       0       0
       0       0       0       0       0       0       0       0
       0       0       0       0       0       0       0       0
       0       0       0       0       0       0       0       0
       0       0       0       0       0       0       0       0
       0       0       0       0       0       0       0       0
       0       0       0       0       0       0       0       0
       0       0       0       0       0       0       0       0
       0       0       0       0       0       0       0       0
       0       0       0       0       0       0       0       0
       0       0       0       0       0       0       0       0
       0       0       0       0       0       0       0       0
       0       0       0       0       0       0       0       0
       0       0       0       0       0       0       0       0
       0       0       0       0       0       0       0       0
       0       0       0       0       0       0       0       0
       0       0       0       0       0       0       0       0
       0       0       0       0       0       0       0       0
       0       0       0       0       0       0       0       0
       0       0       0       0       0       0       0       0
       0       0       0       0       0       0       0       0
       0       0       0       0       0       0       0       0
       0       0       0       0       0       0       0       0
       0       0       0       0       0       0       0       0
       0       0       0       0       0       0       0       0
       0       0       0       0       0       0       0       0
       0       0       0       0       0       0       0       0
       0       0       0       0       0       0       0       0
       0       0       0       0       0       0       0       0
       0       0       0       0       0       0       0       0
       0       0       0       0       0       0       0       0
       0       0       0       0       0       0       0       0
       0       0       0       0       0       0       0       0
       0       0       0       0       0       0       0       0
       0       0       0       0       0       0       0       0
       0       0       0       0       0       0       0       0
       0       0       0       0       0       0       0       0
       0       0       0       0       0       0       0       0
       0       0       0       0       0       0       0       0
       0       0       0       0       0       0       0       0
       0       0       0       0       0       0       0       0
       0       0       0       0       0       0       0       0
       0       0       0       0       0       0       0       0
       0       0       0       0       0       0       0       0
       0       0       0       0       0       0       0       0
       0       0       0       0       0       0       0       0
       0       0       0       0       0       0       0       0
       0       0       0       0       0       0       0       0
       0       0       0       0       0       0       0       0
       0       0       0       0       0       0       0       0
       0       0       0       0       0       0       0       0
       0       0       0       0       0       0       0       0
       0       0       0       0       0       0       0       0
       0       0       0       0       0       0       0       0
       0       0       0       0       0       0       0       0
       0       0       0       0       0       0       0       0
       0       0       0       0       0       0       0       0
       0       0       0       0       0       0       0       0
       0       0       0       0       0       0       0       0
       0       0       0       0       0       0       0       0
       0       0       0       0       0       0       0       0
       0       0       0       0       0       0       0       0
       0       0       0       0       0       0       0       0
       0       0       0       0       0       0       0       0
       0       0       0       0       0       0       0       0
       0       0       0       0       0       0       0       0
       0       0       0       0       0       0       0       0
       0       0       0       0       0       0       0       0
       0       0       0       0       0       0       0       0
       0       0       0       0       0       0       0       0
       0       0       0       0       0       0       0       0
       0       0       0       0       0       0       0       0
       0       0       0       0       0       0       0       0
       0       0       0       0       0       0       0       0
       0       0       0       0       0       0       0       0
       0       0       0       0       0       0       0       0
       0       0       0       0       0       0       0       0
       0       0       0       0       0       0       0       0
       0       0       0       0       0       0       0       0
       0       0       0       0       0       0       0       0
       0       0       0       0       0       0       0       0
       0       0       0       0       0       0       0       0
       0       0       0       0       0       0       0       0
       0       0       0       0       0       0       0       0
       0       0       0       0       0       0       0       0
       0       0       0       0       0       0       0       0
       0       0       0       0       0       0       0       0
       0       0       0       0       0       0       0       0
       0       0       0       0       0       0       0       0
       0       0       0       0       0       0       0       0
       0       0       0       0       0       0       0       0
       0       0       0       0       0       0       0       0
       0       0       0       0       0       0       0       0
       0       0       0       0       0       0       0       0
       0       0       0       0       0       0       0       0
       0       0       0       0       0       0       0       0
       0       0       0       0       0       0       0       0
       0       0       0       0       0       0       0       0
       0       0       0       0       0       0       0       0
       0       0       0       0       0       0       0       0
       0       0       0       0       0       0       0       0
       0       0       0       0       0       0       0       0
       0       0       0       0       0       0       0       0
       0       0       0       0       0       0       0       0
       0       0       0       0       0       0       0       0
       0       0       0       0       0       0       0       0
       0       0       0       0       0       0       0       0
       0       0       0       0       0       0       0       0
       0       0       0       0       0       0       0       0
       0       0       0       0       0       0       0       0
       0       0       0       0       0       0       0       0
       0       0       0       0       0       0       0       0
       0       0       0       0       0       0       0       0
       0       0       0       0       0       0       0       0
       0       0       0       0       0       0       0       0
       0       0       0       0       0       0       0       0
       0       0       0       0       0       0       0       0
       0       0       0       0       0       0       0       0
       0       0       0       0       0       0       0       0
       0       0       0       0       0       0       0       0
       0       0       0       0       0       0       0       0
       0       0       0       0       0       0       0       0
       0       0       0       0       0       0       0       0
       0       0       0       0       0       0       0       0
       0       0       0       0       0       0       0       0
       0       0       0       0       0       0       0       0
       0       0       0       0       0       0       0       0
       0       0       0       0       0       0       0       0
       0       0       0       0       0       0       0       0
       0       0       0       0       0       0       0       0
       0       0       0       0       0       0       0       0
       0       0       0       0       0       0       0       0
       0       0       0       0       0       0       0       0
       0       0       0       0       0       0       0       0
       0       0       0       0       0       0       0       0
       0       0       0       0       0       0       0       0
       0       0       0       0       0       0       0       0
       0       0       0       0       0       0       0       0
       0       0       0       0       0       0       0       0
       0       0       0       0       0       0       0       0
       0       0       0       0       0       0       0       0
       0       0       0       0       0       0       0       0
       0       0       0       0       0       0       0       0
       0       0       0       0       0       0       0       0
       0       0       0       0       0       0       0       0
       0       0       0       0       0       0       0       0
       0       0       0       0       0       0       0       0
       0       0       0       0       0       0       0       0
       0       0       0       0       0       0       0       0
       0       0       0       0       0       0       0       0
       0       0       0       0       0       0       0       0
       0       0       0       0       0       0       0       0
       0       0       0       0       0       0       0       0
       0       0       0       0       0       0       0       0
       0       0       0       0       0       0       0       0
       0       0       0       0       0       0       0       0
       0       0       0       0       0       0       0       0
       0       0       0       0       0       0       0       0
       0       0       0       0       0       0       0       0
       0       0       0       0       0       0       0       0
       0       0       0       0       0       0       0       0
       0       0       0       0       0       0       0       0
       0       0       0       0       0       0       0       0
       0       0       0       0       0       0       0       0
       0       0       0       0       0       0       0       0
       0       0       0       0       0       0       0       0
       0       0       0       0       0       0       0       0
       0       0       0       0       0       0       0       0
       0       0       0       0       0       0       0       0
       0       0       0       0       0       0       0       0
       0       0       0       0       0       0       0       0
       0       0       0       0       0       0       0       0
       0       0       0       0       0       0       0       0
       0       0       0       0       0       0       0       0
       0       0       0       0       0       0       0       0
       0       0       0       0       0       0       0       0
       0       0       0       0       0       0       0       0
       0       0       0       0       0       0       0       0
       0       0       0       0       0       0       0       0
       0       0       0       0       0       0       0       0
       0       0       0       0       0       0       0       0
       0       0       0       0       0       0       0       0
       0       0       0       0       0       0       0       0
       0       0       0       0       0       0       0       0
       0       0       0       0       0       0       0       0
       0       0       0       0       0       0       0       0
       0       0       0       0       0       0       0       0
       0       0       0       0       0       0       0       0
       0       0       0       0       0       0       0       0
       0       0       0       0       0       0       0       0
       0       0       0       0       0       0       0       0
       0       0       0       0       0       0       0       0
       0       0       0       0       0       0       0       0
       0       0       0       0       0       0       0       0
       0       0       0       0       0       0       0       0
       0       0       0       0       0       0       0       0
       0       0       0       0       0       0       0       0
       0       0       0       0       0       0       0       0
       0       0       0       0       0       0       0       0
       0       0       0       0       0       0       0       0
       0       0       0       0       0       0       0       0
       0       0       0       0       0       0       0       0
       0       0       0       0       0       0       0       0
       0       0       0       0       0       0       0       0
       0       0       0       0       0       0       0       0
       0       0       0       0       0       0       0       0
       0       0       0       0       0       0       0       0
       0       0       0       0       0       0       0       0
       0       0       0       0       0       0       0       0
       0       0       0       0       0       0       0       0
       0       0       0       0       0       0       0       0
       0       0       0       0       0       0       0       0
       0       0       0       0       0       0       0       0
       0       0       0       0       0       0       0       0
       0       0       0       0       0       0       0       0
       0       0       0       0       0       0       0       0
       0       0       0       0       0       0       0       0
       0       0       0       0       0       0       0       0
       0       0       0       0       0       0       0       0
       0       0       0       0       0       0       0       0
       0       0       0       0       0       0       0       0
       0       0       0       0       0       0       0       0
       0       0       0       0       0       0       0       0
       0       0       0       0       0       0       0       0
       0       0       0       0       0       0       0       0
       0       0       0       0       0       0       0       0
       0       0       0       0       0       0       0       0
       0       0       0       0       0       0       0       0
       0       0       0       0       0       0       0       0
       0       0       0       0       0       0       0       0
       0       0       0       0       0       0       0       0
       0       0       0       0       0       0       0       0
       0       0       0       0       0       0       0       0
       0       0       0       0       0       0       0       0
       0       0       0       0       0       0       0       0
       0       0       0       0       0       0       0       0
       0       0       0       0       0       0       0       0
       0       0       0       0       0       0       0       0
       0       0       0       0       0       0       0       0
       0       0       0       0       0       0       0       0
       0       0       0       0       0       0       0       0
       0       0       0       0       0       0       0       0
       0       0       0       0       0       0       0       0
       0       0       0       0       0       0       0       0
       0       0       0       0       0       0       0       0
       0       0       0       0       0       0       0       0
       0       0       0       0       0       0       0       0
       0       0       0       0       0       0       0       0
       0       0       0       0       0       0       0       0
       0       0       0       0       0       0       0       0
       0       0       0       0       0       0       0       0
       0       0       0       0       0       0       0       0
       0       0       0       0       0       0       0       0
       0       0       0       0       0       0       0       0
       0       0       0       0       0       0       0       0
       0       0       0       0       0       0       0       0
       0       0       0       0       0       0       0       0
       0       0       0       0       0       0       0       0
       0       0       0       0       0       0       0       0
       0       0       0       0       0       0       0       0
       0       0       0       0       0       0       0       0
       0       0       0       0       0       0       0       0
       0       0       0       0       0       0       0       0
       0       0       0       0       0       0       0       0
       0       0       0       0       0       0       0       0
       0       0       0       0       0       0       0       0
       0       0       0       0       0       0       0       0
       0       0       0       0       0       0       0       0
       0       0       0       0       0       0       0       0
       0       0       0       0       0       0       0       0
       0       0       0       0       0       0       0       0
       0       0       0       0       0       0       0       0
       0       0       0       0       0       0       0       0
       0       0       0       0       0       0       0       0
       0       0       0       0       0       0       0       0
       0       0       0       0       0       0       0       0
       0       0       0       0       0       0       0       0
       0       0       0       0       0       0       0       0
       0       0       0       0       0       0       0       0
       0       0       0       0       0       0       0       0
       0       0       0       0       0       0       0       0
       0       0       0       0       0       0       0       0
       0       0       0       0       0       0       0       0
       0       0       0       0       0       0       0       0
       0       0       0       0       0       0       0       0
       0       0       0       0       0       0       0       0
       0       0       0       0       0       0       0       0
       0       0       0       0       0       0       0       0
       0       0       0       0       0       0       0       0
       0       0       0       0       0       0       0       0
       0       0       0       0       0       0       0       0
       0       0       0       0       0       0       0       0
       0       0       0       0       0       0       0       0
       0       0       0       0       0       0       0       0
       0       0       0       0       0       0       0       0
       0       0       0       0       0       0       0       0
       0       0       0       0       0       0       0       0
       0       0       0       0       0       0       0       0
       0       0       0       0       0       0       0       0
       0       0       0       0       0       0       0       0
       0       0       0       0       0       0       0       0
       0       0       0       0       0       0       0       0
       0       0       0       0       0       0       0       0
       0       0       0       0       0       0       0       0
       0       0       0       0       0       0       0       0
       0       0       0       0       0       0       0       0
       0       0       0       0       0       0       0       0
       0       0       0       0       0       0       0       0
       0       0       0       0       0       0       0       0
       0       0       0       0       0       0       0       0
       0       0       0       0       0       0       0       0
       0       0       0       0       0       0       0       0
       0       0       0       0       0       0       0       0
       0       0       0       0       0       0       0       0
       0       0       0       0       0       0       0       0
       0       0       0       0       0       0       0       0
       0       0       0       0       0       0       0       0
       0       0       0       0       0       0       0       0
       0       0       0       0       0       0       0       0
       0       0       0       0       0       0       0       0
       0       0       0       0       0       0       0       0
       0       0       0       0       0       0       0       0
       0       0       0       0       0       0       0       0
       0       0       0       0       0       0       0       0
       0       0       0       0       0       0       0       0
       0       0       0       0       0       0       0       0
       0       0       0       0       0       0       0       0
       0       0       0       0       0       0       0       0
       0       0       0       0       0       0       0       0
       0       0       0       0       0       0       0       0
       0       0       0       0       0       0       0       0
       0       0       0       0       0       0       0       0
       0       0       0       0       0       0       0       0
       0       0       0       0       0       0       0       0
       0       0       0       0       0       0       0       0
       0       0       0       0       0       0       0       0
       0       0       0       0       0       0       0       0
       0       0       0       0       0       0       0       0
       0       0       0       0       0       0       0       0
       0       0       0       0       0       0       0       0
       0       0       0       0       0       0       0       0
       0       0       0       0       0       0       0       0
       0       0       0       0       0       0       0       0
       0       0       0       0       0       0       0       0
       0       0       0       0       0       0       0       0
       0       0       0       0       0       0       0       0
       0       0       0       0       0       0       0       0
       0       0       0       0       0       0       0       0
       0       0       0       0       0       0       0       0
       0       0       0       0       0       0       0       0
       0       0       0       0       0       0       0       0
       0       0       0       0       0       0       0       0
       0       0       0       0       0       0       0       0
       0       0       0       0       0       0       0       0
       0       0       0       0       0       0       0       0
       0       0       0       0       0       0       0       0
       0       0       0       0       0       0       0       0
       0       0       0       0       0       0       0       0
       0       0       0       0       0       0       0       0
       0       0       0       0       0       0       0       0
       0       0       0       0       0       0       0       0
       0       0       0       0       0       0       0       0
       0       0       0       0       0       0       0       0
       0       0       0       0       0       0       0       0
       0       0       0       0       0       0       0       0
       0       0       0       0       0       0       0       0
       0       0       0       0       0       0       0       0
       0       0       0       0       0       0       0       0
       0       0       0       0       0       0       0       0
       0       0       0       0       0       0       0       0
       0       0       0       0       0       0       0       0
       0       0       0       0       0       0       0       0
       0       0       0       0       0       0       0       0
       0       0       0       0       0       0       0       0
       0       0       0       0       0       0       0       0
       0       0       0       0       0       0       0       0
       0       0       0       0       0       0       0       0
       0       0       0       0       0       0       0       0
       0       0       0       0       0       0       0       0
       0       0       0       0       0       0       0       0
       0       0       0       0       0       0       0       0
       0       0       0       0       0       0       0       0
       0       0       0       0       0       0       0       0
       0       0       0       0       0       0       0       0
       0       0       0       0       0       0       0       0
       0       0       0       0       0       0       0       0
       0       0       0       0       0       0       0       0
       0       0       0       0       0       0       0       0
       0       0       0       0       0       0       0       0
       0       0       0       0       0       0       0       0
       0       0       0       0       0       0       0       0
       0       0       0       0       0       0       0       0
       0       0       0       0       0       0       0       0
       0       0       0       0       0       0       0       0
       0       0       0       0       0       0       0       0
       0       0       0       0       0       0       0       0
       0       0       0       0       0       0       0       0
       0       0       0       0       0       0       0       0
       0       0       0       0       0       0       0       0
       0       0       0       0       0       0       0       0
       0       0       0       0       0       0       0       0
       0       0       0       0       0       0       0       0
       0       0       0       0       0       0       0       0
       0       0       0       0       0       0       0       0
       0       0       0       0       0       0       0       0
       0       0       0       0       0       0       0       0
       0       0       0       0       0       0       0       0
       0       0       0       0       0       0       0       0
       0       0       0       0       0       0       0       0
       0       0       0       0       0       0       0       0
       0       0       0       0       0       0       0       0
       0       0       0       0       0       0       0       0
       0       0       0       0       0       0       0       0
       0       0       0       0       0       0       0       0
       0       0       0       0       0       0       0       0
       0       0       0       0       0       0       0       0
       0       0       0       0       0       0       0       0
       0       0       0       0       0       0       0       0
       0       0       0       0       0       0       0       0
       0       0       0       0       0       0       0       0
       0       0       0       0       0       0       0       0
       0       0       0       0       0       0       0       0
       0       0       0       0       0       0       0       0
       0       0       0       0       0       0       0       0
       0       0       0       0       0       0       0       0
       0       0       0       0       0       0       0       0
       0       0       0       0       0       0       0       0
       0       0       0       0       0       0       0       0
       0       0       0       0       0       0       0       0
       0       0       0       0       0       0       0       0
       0       0       0       0       0       0       0       0
       0       0       0       0       0       0       0       0
       0       0       0       0       0       0       0       0
       0       0       0       0       0       0       0       0
       0       0       0       0       0       0       0       0
       0       0       0       0       0       0       0       0
       0       0       0       0       0       0       0       0
       0       0       0       0       0       0       0       0
       0       0       0       0       0       0       0       0
       0       0       0       0       0       0       0       0
       0       0       0       0       0       0       0       0
       0       0       0       0       0       0       0       0
       0       0       0       0       0       0       0       0
       0       0       0       0       0       0       0       0
       0       0       0       0       0       0       0       0
       0       0       0       0       0       0       0       0
       0       0       0       0       0       0       0       0
       0       0       0       0       0       0       0       0
       0       0       0       0       0       0       0       0
       0       0       0       0       0       0       0       0
       0       0       0       0       0       0       0       0
       0       0       0       0       0       0       0       0
       0       0       0       0       0       0       0       0
       0       0       0       0       0       0       0       0
       0       0       0       0       0       0       0       0
       0       0       0       0       0       0       0       0
       0       0       0       0       0       0       0       0
       0       0       0       0       0       0       0       0
       0       0       0       0       0       0       0       0
       0       0       0       0       0       0       0       0
       0       0       0       0       0       0       0       0
       0       0       0       0       0       0       0       0
       0       0       0       0       0       0       0       0
       0       0       0       0       0       0       0       0
       0       0       0       0       0       0       0       0
       0       0       0       0       0       0       0       0
       0       0       0       0       0       0       0       0
       0       0       0       0       0       0       0       0
       0       0       0       0       0       0       0       0
       0       0       0       0       0       0       0       0
       0       0       0       0       0       0       0       0
       0       0       0       0       0       0       0       0
       0       0       0       0       0       0       0       0
       0       0       0       0       0       0       0       0
       0       0       0       0       0       0       0       0
       0       0       0       0       0       0       0       0
       0       0       0       0       0       0       0       0
       0       0       0       0       0       0       0       0
       0       0       0       0       0       0       0       0
       0       0       0       0       0       0       0       0
       0       0       0       0       0       0       0       0
       0       0       0       0       0       0       0       0
       0       0       0       0       0       0       0       0
       0       0       0       0       0       0       0       0
       0       0       0       0       0       0       0       0
       0       0       0       0       0       0       0       0
       0       0       0       0       0       0       0       0
       0       0       0       0       0       0       0       0
       0       0       0       0       0       0       0       0
       0       0       0       0       0       0       0       0
       0       0       0       0       0       0       0       0
       0       0       0       0       0       0       0       0
       0       0       0       0       0       0       0       0
       0       0       0       0       0       0       0       0
       0       0       0       0       0       0       0       0
       0       0       0       0       0       0       0       0
       0       0       0       0       0       0       0       0
       0       0       0       0       0       0       0       0
       0       0       0       0       0       0       0       0
       0       0       0       0       0       0       0       0
       0       0       0       0       0       0       0       0
       0       0       0       0       0       0       0       0
       0       0       0       0       0       0       0       0
       0       0       0       0       0       0       0       0
       0       0       0       0       0       0       0       0
       0       0       0       0       0       0       0       0
       0       0       0       0       0       0       0       0
       0       0       0       0       0       0       0       0
       0       0       0       0       0       0       0       0
       0       0       0       0       0       0       0       0
       0       0       0       0       0       0       0       0
       0       0       0       0       0       0       0       0
       0       0       0       0       0       0       0       0
       0       0       0       0       0       0       0       0
       0       0       0       0       0       0       0       0
       0       0       0       0       0       0       0       0
       0       0       0       0       0       0       0       0
       0       0       0       0       0       0       0       0
       0       0       0       0       0       0       0       0
       0       0       0       0       0       0       0       0
       0       0       0       0       0       0       0       0
       0       0       0       0       0       0       0       0
       0       0       0       0       0       0       0       0
       0       0       0       0       0       0       0       0
       0       0       0       0       0       0       0       0
       0       0       0       0       0       0       0       0
       0       0       0       0       0       0       0       0
       0       0       0       0       0       0       0       0
       0       0       0       0       0       0       0       0
       0       0       0       0       0       0       0       0
       0       0       0       0       0       0       0       0
       0       0       0       0       0       0       0       0
       0       0       0       0       0       0       0       0
       0       0       0       0       0       0       0       0
       0       0       0       0       0       0       0       0
       0       0       0       0       0       0       0       0
       0       0       0       0       0       0       0       0
       0       0       0       0       0       0       0       0
       0       0       0       0       0       0       0       0
       0       0       0       0       0       0       0       0
       0       0       0       0       0       0       0       0
       0       0       0       0       0       0       0       0
       0       0       0       0       0       0       0       0
       0       0       0       0       0       0       0       0
       0       0       0       0       0       0       0       0
       0       0       0       0       0       0       0       0
       0       0       0       0       0       0       0       0
       0       0       0       0       0       0       0       0
       0       0       0       0       0       0       0       0
       0       0       0       0       0       0       0       0
       0       0       0       0       0       0       0       0
       0       0       0       0       0       0       0       0
       0       0       0       0       0       0       0       0
       0       0       0       0       0       0       0       0
       0       0       0       0       0       0       0       0
       0       0       0       0       0       0       0       0
       0       0       0       0       0       0       0       0
       0       0       0       0       0       0       0       0
       0       0       0       0       0       0       0       0
       0       0       0       0       0       0       0       0
       0       0       0       0       0       0       0       0
       0       0       0       0       0       0       0       0
       0       0       0       0       0       0       0       0
       0       0       0       0       0       0       0       0
       0       0       0       0       0       0       0       0
       0       0       0       0       0       0       0       0
       0       0       0       0       0       0       0       0
       0       0       0       0       0       0       0       0
       0       0       0       0       0       0       0       0
       0       0       0       0       0       0       0       0
       0       0       0       0       0       0       0       0
       0       0       0       0       0       0       0       0
       0       0       0       0       0       0       0       0
       0       0       0       0       0       0       0       0
       0       0       0       0       0       0       0       0
       0       0       0       0       0       0       0       0
       0       0       0       0       0       0       0       0
       0       0       0       0       0       0       0       0
       0       0       0       0       0       0       0       0
       0       0       0       0       0       0       0       0
       0       0       0       0       0       0       0       0
       0       0       0       0       0       0       0       0
       0       0       0       0       0       0       0       0
       0       0       0       0       0       0       0       0
       0       0       0       0       0       0       0       0
       0       0       0       0       0       0       0       0
       0       0       0       0       0       0       0       0
       0       0       0       0       0       0       0       0
       0       0       0       0       0       0       0       0
       0       0       0       0       0       0       0       0
       0       0       0       0       0       0       0       0
       0       0       0       0       0       0       0       0
       0       0       0       0       0       0       0       0
       0       0       0       0       0       0       0       0
       0       0       0       0       0       0       0       0
       0       0       0       0       0       0       0       0
       0       0       0       0       0       0       0       0
       0       0       0       0       0       0       0       0
       0       0       0       0       0       0       0       0
       0       0       0       0       0       0       0       0
       0       0       0       0       0       0       0       0
       0       0       0       0       0       0       0       0
       0       0       0       0       0       0       0       0
       0       0       0       0       0       0       0       0
       0       0       0       0       0       0       0       0
       0       0       0       0       0       0       0       0
       0       0       0       0       0       0       0       0
       0       0       0       0       0       0       0       0
       0       0       0       0       0       0       0       0
       0       0       0       0       0       0       0       0
       0       0       0       0       0       0       0       0
       0       0       0       0       0       0       0       0
       0       0       0       0       0       0       0       0
       0       0       0       0       0       0       0       0
       0       0       0       0       0       0       0       0
       0       0       0       0       0       0       0       0
       0       0       0       0       0       0       0       0
       0       0       0       0       0       0       0       0
       0       0       0       0       0       0       0       0
       0       0       0       0       0       0       0       0
       0       0       0       0       0       0       0       0
       0       0       0       0       0       0       0       0
       0       0       0       0       0       0       0       0
       0       0       0       0       0       0       0       0
       0       0       0       0       0       0       0       0
       0       0       0       0       0       0       0       0
       0       0       0       0       0       0       0       0
       0       0       0       0       0       0       0       0
       0       0       0       0       0       0       0       0
       0       0       0       0       0       0       0       0
       0       0       0       0       0       0       0       0
       0       0       0       0       0       0       0       0
       0       0       0       0       0       0       0       0
       0       0       0       0       0       0       0       0
       0       0       0       0       0       0       0       0
       0       0       0       0       0       0       0       0
       0       0       0       0       0       0       0       0
       0       0       0       0       0       0       0       0
       0       0       0       0       0       0       0       0
       0       0       0       0       0       0       0       0
       0       0       0       0       0       0       0       0
       0       0       0       0       0       0       0       0
       0       0       0       0       0       0       0       0
       0       0       0       0       0       0       0       0
       0       0       0       0       0       0       0       0
       0       0       0       0       0       0       0       0
       0       0       0       0       0       0       0       0
       0       0       0       0       0       0       0       0
       0       0       0       0       0       0       0       0
       0       0       0       0       0       0       0       0
       0       0       0       0       0       0       0       0
       0       0       0       0       0       0       0       0
       0       0       0       0       0       0       0       0
       0       0       0       0       0       0       0       0
       0       0       0       0       0       0       0       0
       0       0       0       0       0       0       0       0
       0       0       0       0       0       0       0       0
       0       0       0       0       0       0       0       0
       0       0       0       0       0       0       0       0
       0       0       0       0       0       0       0       0
       0       0       0       0       0       0       0       0
       0       0       0       0       0       0       0       0
       0       0       0       0       0       0       0       0
       0       0       0       0       0       0       0       0
       0       0       0       0       0       0       0       0
       0       0       0       0       0       0       0       0
       0       0       0       0       0       0       0       0
       0       0       0       0       0       0       0       0
       0       0       0       0       0       0       0       0
       0       0       0       0       0       0       0       0
       0       0       0       0       0       0       0       0
       0       0       0       0       0       0       0       0
       0       0       0       0       0       0       0       0
       0       0       0       0       0       0       0       0
       0       0       0       0       0       0       0       0
       0       0       0       0       0       0       0       0
       0       0       0       0       0       0       0       0
       0       0       0       0       0       0       0       0
       0       0       0       0       0       0       0       0
       0       0       0       0       0       0       0       0
       0       0       0       0       0       0       0       0
       0       0       0       0       0       0       0       0
       0       0       0       0       0       0       0       0
       0       0       0       0       0       0       0       0
       0       0       0       0       0       0       0       0
       0       0       0       0       0       0       0       0
       0       0       0       0       0       0       0       0
       0       0       0       0       0       0       0       0
       0       0       0       0       0       0       0       0
       0       0       0       0       0       0       0       0
       0       0       0       0       0       0       0       0
       0       0       0       0       0       0       0       0
       0       0       0       0       0       0       0       0
       0       0       0       0       0       0       0       0
       0       0       0       0       0       0       0       0
       0       0       0       0       0       0       0       0
       0       0       0       0       0       0       0       0
       0       0       0       0       0       0       0       0
       0       0       0       0       0       0       0       0
       0       0       0       0       0       0       0       0
       0       0       0       0       0       0       0       0
       0       0       0       0       0       0       0       0
       0       0       0       0       0       0       0       0
       0       0       0       0       0       0       0       0
       0       0       0       0       0       0       0       0
       0       0       0       0       0       0       0       0
       0       0       0       0       0       0       0       0
       0       0       0       0       0       0       0       0
       0       0       0       0       0       0       0       0
       0       0       0       0       0       0       0       0
       0       0       0       0       0       0       0       0
       0       0       0       0       0       0       0       0
       0       0       0       0       0       0       0       0
       0       0       0       0       0       0       0       0
       0       0       0       0       0       0       0       0
       0       0       0       0       0       0       0       0
       0       0       0       0       0       0       0       0
       0       0       0       0       0       0       0       0
       0       0       0       0       0       0       0       0
       0       0       0       0       0       0       0       0
       0       0       0       0       0       0       0       0
       0       0       0       0       0       0       0       0
       0       0       0       0       0       0       0       0
       0       0       0       0       0       0       0       0
       0       0       0       0       0       0       0       0
       0       0       0       0       0       0       0       0
       0       0       0       0       0       0       0       0
       0       0       0       0       0       0       0       0
       0       0       0       0       0       0       0       0
       0       0       0       0       0       0       0       0
       0       0       0       0       0       0       0       0
       0       0       0       0       0       0       0       0
       0       0       0       0       0       0       0       0
       0       0       0       0       0       0       0       0
       0       0       0       0       0       0       0       0
       0       0       0       0       0       0       0       0
       0       0       0       0       0       0       0       0
       0       0       0       0       0       0       0       0
       0       0       0       0       0       0       0       0
       0       0       0       0       0       0       0       0
       0       0       0       0       0       0       0       0
       0       0       0       0       0       0       0       0
       0       0       0       0       0       0       0       0
       0       0       0       0       0       0       0       0
       0       0       0       0       0       0       0       0
       0       0       0       0       0       0       0       0
       0       0       0       0       0       0       0       0
       0       0       0       0       0       0       0       0
       0       0       0       0       0       0       0       0
       0       0       0       0       0       0       0       0
       0       0       0       0       0       0       0       0
       0       0       0       0       0       0       0       0
       0       0       0       0       0       0       0       0
       0       0       0       0       0       0       0       0
       0       0       0       0       0       0       0       0
       0       0       0       0       0       0       0       0
       0       0       0       0       0       0       0       0
       0       0       0       0       0       0       0       0
       0       0       0       0       0       0       0       0
       0       0       0       0       0       0       0       0
       0       0       0       0       0       0       0       0
       0       0       0       0       0       0       0       0
       0       0       0       0       0       0       0       0
       0       0       0       0       0       0       0       0
       0       0       0       0       0       0       0       0
       0       0       0       0       0       0       0       0
       0       0       0       0       0       0       0       0
       0       0       0       0       0       0       0       0
       0       0       0       0       0       0       0       0
       0       0       0       0       0       0       0       0
       0       0       0       0       0       0       0       0
       0       0       0       0       0       0       0       0
       0       0       0       0       0       0       0       0
       0       0       0       0       0       0       0       0
       0       0       0       0       0       0       0       0
       0       0       0       0       0       0       0       0
       0       0       0       0       0       0       0       0
       0       0       0       0       0       0       0       0
       0       0       0       0       0       0       0       0
       0       0       0       0       0       0       0       0
       0       0       0       0       0       0       0       0
       0       0       0       0       0       0       0       0
       0       0       0       0       0       0       0       0
       0       0       0       0       0       0       0       0
       0       0       0       0       0       0       0       0
       0       0       0       0       0       0       0       0
       0       0       0       0       0       0       0       0
       0       0       0       0       0       0       0       0
       0       0       0       0       0       0       0       0
       0       0       0       0       0       0       0       0
       0       0       0       0       0       0       0       0
       0       0       0       0       0       0       0       0
       0       0       0       0       0       0       0       0
       0       0       0       0       0       0       0       0
       0       0       0       0       0       0       0       0
       0       0       0       0       0       0       0       0
       0       0       0       0       0       0       0       0
       0       0       0       0       0       0       0       0
       0       0       0       0       0       0       0       0
       0       0       0       0       0       0       0       0
       0       0       0       0       0       0       0       0
       0       0       0       0       0       0       0       0
       0       0       0       0       0       0       0       0
       0       0       0       0       0       0       0       0
       0       0       0       0       0       0       0       0
       0       0       0       0       0       0       0       0
       0       0       0       0       0       0       0       0
       0       0       0       0       0       0       0       0
       0       0       0       0       0       0       0       0
       0       0       0       0       0       0       0       0
       0       0       0       0       0       0       0       0
       0       0       0       0       0       0       0       0
       0       0       0       0       0       0       0       0
       0       0       0       0       0       0       0       0
       0       0       0       0       0       0       0       0
       0       0       0       0       0       0       0       0
       0       0       0       0       0       0       0       0
       0       0       0       0       0       0       0       0
       0       0       0       0       0       0       0       0
       0       0       0       0       0       0       0       0
       0       0       0       0       0       0       0       0
       0       0       0       0       0       0       0       0
       0       0       0       0       0       0       0       0
       0       0       0       0       0       0       0       0
       0       0       0       0       0       0       0       0
       0       0       0       0       0       0       0       0
       0       0       0       0       0       0       0       0
       0       0       0       0       0       0       0       0
       0       0       0       0       0       0       0       0
       0       0       0       0       0       0       0       0
       0       0       0       0       0       0       0       0
       0       0       0       0       0       0       0       0
       0       0       0       0       0       0       0       0
       0       0       0       0       0       0       0       0
       0       0       0       0       0       0       0       0
       0       0       0       0       0       0       0       0
       0       0       0       0       0       0       0       0
       0       0       0       0       0       0       0       0
       0       0       0       0       0       0       0       0
       0       0       0       0       0       0       0       0
       0       0       0       0       0       0       0       0
       0       0       0       0       0       0       0       0
       0       0       0       0       0       0       0       0
       0       0       0       0       0       0       0       0
       0       0       0       0       0       0       0       0
       0       0       0       0       0       0       0       0
       0       0       0       0       0       0       0       0
       0       0       0       0       0       0       0       0
       0       0       0       0       0       0       0       0
       0       0       0       0       0       0       0       0
       0       0       0       0       0       0       0       0
       0       0       0       0       0       0       0       0
       0       0       0       0       0       0       0       0
       0       0       0       0       0       0       0       0
       0       0       0       0       0       0       0       0
       0       0       0       0       0       0       0       0
       0       0       0       0       0       0       0       0
       0       0       0       0       0       0       0       0
       0       0       0       0       0       0       0       0
       0       0       0       0       0       0       0       0
       0       0       0       0       0       0       0       0
       0       0       0       0       0       0       0       0
       0       0       0       0       0       0       0       0
       0       0       0       0       0       0       0       0
       0       0       0       0       0       0       0       0
       0       0       0       0       0       0       0       0
       0       0       0       0       0       0       0       0
       0       0       0       0       0       0       0       0
       0       0       0       0       0       0       0       0
       0       0       0       0       0       0       0       0
       0       0       0       0       0       0       0       0
       0       0       0       0       0       0       0       0
       0       0       0       0       0       0       0       0
       0       0       0       0       0       0       0       0
       0       0       0       0       0       0       0       0
       0       0       0       0       0       0       0       0
       0       0       0       0       0       0       0       0
       0       0       0       0       0       0       0       0
       0       0       0       0       0       0       0       0
       0       0       0       0       0       0       0       0
       0       0       0       0       0       0       0       0
       0       0       0       0       0       0       0       0
       0       0       0       0       0       0       0       0
       0       0       0       0       0       0       0       0
       0       0       0       0       0       0       0       0
       0       0       0       0       0       0       0       0
       0       0       0       0       0       0       0       0
       0       0       0       0       0       0       0       0
       0       0       0       0       0       0       0       0
       0       0       0       0       0       0       0       0
       0       0       0       0       0       0       0       0
       0       0       0       0       0       0       0       0
       0       0       0       0       0       0       0       0
       0       0       0       0       0       0       0       0
       0       0       0       0       0       0       0       0
       0       0       0       0       0       0       0       0
       0       0       0       0       0       0       0       0
       0       0       0       0       0       0       0       0
       0       0       0       0       0       0       0       0
       0       0       0       0       0       0       0       0
       0       0       0       0       0       0       0       0
       0       0       0       0       0       0       0       0
       0       0       0       0       0       0       0       0
       0       0       0       0       0       0       0       0
       0       0       0       0       0       0       0       0
       0       0       0       0       0       0       0       0
       0       0       0       0       0       0       0       0
       0       0       0       0       0       0       0       0
       0       0       0       0       0       0       0       0
       0       0       0       0       0       0       0       0
       0       0       0       0       0       0       0       0
       0       0       0       0       0       0       0       0
       0       0       0       0       0       0       0       0
       0       0       0       0       0       0       0       0
       0       0       0       0       0       0       0       0
       0       0       0       0       0       0       0       0
       0       0       0       0       0       0       0       0
       0       0       0       0       0       0       0       0
       0       0       0       0       0       0       0       0
       0       0       0       0       0       0       0       0
       0       0       0       0       0       0       0       0
       0       0       0       0       0       0       0       0
       0       0       0       0       0       0       0       0
       0       0       0       0       0       0       0       0
       0       0       0       0       0       0       0       0
       0       0       0       0       0       0       0       0
       0       0       0       0       0       0       0       0
       0       0       0       0       0       0       0       0
       0       0       0       0       0       0       0       0
       0       0       0       0       0       0       0       0
       0       0       0       0       0       0       0       0
       0       0       0       0       0       0       0       0
       0       0       0       0       0       0       0       0
       0       0       0       0       0       0       0       0
       0       0       0       0       0       0       0       0
       0       0       0       0       0       0       0       0
       0       0       0       0       0       0       0       0
       0       0       0       0       0       0       0       0
       0       0       0       0       0       0       0       0
       0       0       0       0       0       0       0       0
       0       0       0       0       0       0       0       0
       0       0       0       0       0       0       0       0
       0       0       0       0       0       0       0       0
       0       0       0       0       0       0       0       0
       0       0       0       0       0       0       0       0
       0       0       0       0       0       0       0       0
       0       0       0       0       0       0       0       0
       0       0       0       0       0       0       0       0
       0       0       0       0       0       0       0       0
       0       0       0       0       0       0       0       0
       0       0       0       0       0       0       0       0
       0       0       0       0       0       0       0       0
       0       0       0       0       0       0       0       0
       0       0       0       0       0       0       0       0
       0       0       0       0       0       0       0       0
       0       0       0       0       0       0       0       0
       0       0       0       0       0       0       0       0
       0       0       0       0       0       0       0       0
       0       0       0       0       0       0       0       0
       0       0       0       0       0       0       0       0
       0       0       0       0       0       0       0       0
       0       0       0       0       0       0       0       0
       0       0       0       0       0       0       0       0
       0       0       0       0       0       0       0       0
       0       0       0       0       0       0       0       0
       0       0       0       0       0       0       0       0
       0       0       0       0       0       0       0       0
       0       0       0       0       0       0       0       0
       0       0       0       0       0       0       0       0
       0       0       0       0       0       0       0       0
       0       0       0       0       0       0       0       0
       0       0       0       0       0       0       0       0
       0       0       0       0       0       0       0       0
       0       0       0       0       0       0       0       0
       0       0       0       0       0       0       0       0
       0       0       0       0       0       0       0       0
       0       0       0       0       0       0       0       0
       0       0       0       0       0       0       0       0
       0       0       0       0       0       0       0       0
       0       0       0       0       0       0       0       0
       0       0       0       0       0       0       0       0
       0       0       0       0       0       0       0       0
       0       0       0       0       0       0       0       0
       0       0       0       0       0       0       0       0
       0       0       0       0       0       0       0       0
       0       0       0       0       0       0       0       0
       0       0       0       0       0       0       0       0
       0       0       0       0       0       0       0       0
       0       0       0       0       0       0       0       0
       0       0       0       0       0       0       0       0
       0       0       0       0       0       0       0       0
       0       0       0       0       0       0       0       0
       0       0       0       0       0       0       0       0
       0       0       0       0       0       0       0       0
       0       0       0       0       0       0       0       0
       0       0       0       0       0       0       0       0
       0       0       0       0       0       0       0       0
       0       0       0       0       0       0       0       0
       0       0       0       0       0       0       0       0
       0       0       0       0       0       0       0       0
       0       0       0       0       0       0       0       0
       0       0       0       0       0       0       0       0
       0       0       0       0       0       0       0       0
       0       0       0       0       0       0       0       0
       0       0       0       0       0       0       0       0
       0       0       0       0       0       0       0       0
       0       0       0       0       0       0       0       0
       0       0       0       0       0       0       0       0
       0       0       0       0       0       0       0       0
       0       0       0       0       0       0       0       0
       0       0       0       0       0       0       0       0
       0       0       0       0       0       0       0       0
       0       0       0       0       0       0       0       0
       0       0       0       0       0       0       0       0
       0       0       0       0       0       0       0       0
       0       0       0       0       0       0       0       0
       0       0       0       0       0       0       0       0
       0       0       0       0       0       0       0       0
       0       0       0       0       0       0       0       0
       0       0       0       0       0       0       0       0
       0       0       0       0       0       0       0       0
       0       0       0       0       0       0       0       0
       0       0       0       0       0       0       0       0
       0       0       0       0       0       0       0       0
       0       0       0       0       0       0       0       0
       0       0       0       0       0       0       0       0
       0       0       0       0       0       0       0       0
       0       0       0       0       0       0       0       0
       0       0       0       0       0       0       0       0
       0       0       0       0       0       0       0       0
       0       0       0       0       0       0       0       0
       0       0       0       0       0       0       0       0
       0       0       0       0       0       0       0       0
       0       0       0       0       0       0       0       0
       0       0       0       0       0       0       0       0
       0       0       0       0       0       0       0       0
       0       0       0       0       0       0       0       0
       0       0       0       0       0       0       0       0
       0       0       0       0       0       0       0       0
       0       0       0       0       0       0       0       0
       0       0       0       0       0       0       0       0
       0       0       0       0       0       0       0       0
       0       0       0       0       0       0       0       0
       0       0       0       0       0       0       0       0
       0       0       0       0       0       0       0       0
       0       0       0       0       0       0       0       0
       0       0       0       0       0       0       0       0
       0       0       0       0       0       0       0       0
       0       0       0       0       0       0       0       0
       0       0       0       0       0       0       0       0
       0       0       0       0       0       0       0       0
       0       0       0       0       0       0       0       0
       0       0       0       0       0       0       0       0
       0       0       0       0       0       0       0       0
       0       0       0       0       0       0       0       0
       0       0       0       0       0       0       0       0
       0       0       0       0       0       0       0       0
       0       0       0       0       0       0       0       0
       0       0       0       0       0       0       0       0
       0       0       0       0       0       0       0       0
       0       0       0       0       0       0       0       0
       0       0       0       0       0       0       0       0
       0       0       0       0       0       0       0       0
       0       0       0       0       0       0       0       0
       0       0       0       0       0       0       0       0
       0       0       0       0       0       0       0       0
       0       0       0       0       0       0       0       0
       0       0       0       0       0       0       0       0
       0       0       0       0       0       0       0       0
       0       0       0       0       0       0       0       0
       0       0       0       0       0       0       0       0
       0       0       0       0       0       0       0       0
       0       0       0       0       0       0       0       0
       0       0       0       0       0       0       0       0
       0       0       0       0       0       0       0       0
       0       0       0       0       0       0       0       0
       0       0       0       0       0       0       0       0
       0       0       0       0       0       0       0       0
       0       0       0       0       0       0       0       0
       0       0       0       0       0       0       0       0
       0       0       0       0       0       0       0       0
       0       0       0       0       0       0       0       0
       0       0       0       0       0       0       0       0
       0       0       0       0       0       0       0       0
       0       0       0       0       0       0       0       0
       0       0       0       0       0       0       0       0
       0       0       0       0       0       0       0       0
       0       0       0       0       0       0       0       0
       0       0       0       0       0       0       0       0
       0       0       0       0       0       0       0       0
       0       0       0       0       0       0       0       0
       0       0       0       0       0       0       0       0
       0       0       0       0       0       0       0       0
       0       0       0       0       0       0       0       0
       0       0       0       0       0       0       0       0
       0       0       0       0       0       0       0       0
       0       0       0       0       0       0       0       0
       0       0       0       0       0       0       0       0
       0       0       0       0       0       0       0       0
       0       0       0       0       0       0       0       0
       0       0       0       0       0       0       0       0
       0       0       0       0       0       0       0       0
       0       0       0       0       0       0       0       0
       0       0       0       0       0       0       0       0
       0       0       0       0       0       0       0       0
       0       0       0       0       0       0       0       0
       0       0       0       0       0       0       0       0
       0       0       0       0       0       0       0       0
       0       0       0       0       0       0       0       0
       0       0       0       0       0       0       0       0
       0       0       0       0       0       0       0       0
       0       0       0       0       0       0       0       0
       0       0       0       0       0       0       0       0
       0       0       0       0       0       0       0       0
       0       0       0       0       0       0       0       0
       0       0       0       0       0       0       0       0
       0       0       0       0       0       0       0       0
       0       0       0       0       0       0       0       0
       0       0       0       0       0       0       0       0
       0       0       0       0       0       0       0       0
       0       0       0       0       0       0       0       0
       0       0       0       0       0       0       0       0
       0       0       0       0       0       0       0       0
       0       0       0       0       0       0       0       0
       0       0       0       0       0       0       0       0
       0       0       0       0       0       0       0       0
       0       0       0       0       0       0       0       0
       0       0       0       0       0       0       0       0
       0       0       0       0       0       0       0       0
       0       0       0       0       0       0       0       0
       0       0       0       0       0       0       0       0
       0       0       0       0       0       0       0       0
       0       0       0       0       0       0       0       0
       0       0       0       0       0       0       0       0
       0       0       0       0       0       0       0       0
       0       0       0       0       0       0       0       0
       0       0       0       0       0       0       0       0
       0       0       0       0       0       0       0       0
       0       0       0       0       0       0       0       0
       0       0       0       0       0       0       0       0
       0       0       0       0       0       0       0       0
       0       0       0       0       0       0       0       0
       0       0       0       0       0       0       0       0
       0       0       0       0       0       0       0       0
       0       0       0       0       0       0       0       0
       0       0       0       0       0       0       0       0
       0       0       0       0       0       0       0       0
       0       0       0       0       0       0       0       0
       0       0       0       0       0       0       0       0
       0       0       0       0       0       0       0       0
       0       0       0       0       0       0       0       0
       0       0       0       0       0       0       0       0
       0       0       0       0       0       0       0       0
       0       0       0       0       0       0       0       0
       0       0       0       0       0       0       0       0
       0       0       0       0       0       0       0       0
       0       0       0       0       0       0       0       0
       0       0       0       0       0       0       0       0
       0       0       0       0       0       0       0       0
       0       0       0       0       0       0       0       0
       0       0       0       0       0       0       0       0
       0       0       0       0       0       0       0       0
       0       0       0       0       0       0       0       0
       0       0       0       0       0       0       0       0
       0       0       0       0       0       0       0       0
       0       0       0       0       0       0       0       0
       0       0       0       0       0       0       0       0
       0       0       0       0       0       0       0       0
       0       0       0       0       0       0       0       0
       0       0       0       0       0       0       0       0
       0       0       0       0       0       0       0       0
       0       0       0       0       0       0       0       0
       0       0       0       0       0       0       0       0
       0       0       0       0       0       0       0       0
       0       0       0       0       0       0       0       0
       0       0       0       0       0       0       0       0
       0       0       0       0       0       0       0       0
       0       0       0       0       0       0       0       0
       0       0       0       0       0       0       0       0
       0       0       0       0       0       0       0       0
       0       0       0       0       0       0       0       0
       0       0       0       0       0       0       0       0
       0       0       0       0       0       0       0       0
       0       0       0       0       0       0       0       0
       0       0       0       0       0       0       0       0
       0       0       0       0       0       0       0       0
       0       0       0       0       0       0       0       0
       0       0       0       0       0       0       0       0
       0       0       0       0       0       0       0       0
       0       0       0       0       0       0       0       0
       0       0       0       0       0       0       0       0
       0       0       0       0       0       0       0       0
       0       0       0       0       0       0       0       0
       0       0       0       0       0       0       0       0
       0       0       0       0       0       0       0       0
       0       0       0       0       0       0       0       0
       0       0       0       0       0       0       0       0
       0       0       0       0       0       0       0       0
       0       0       0       0       0       0       0       0
       0       0       0       0       0       0       0       0
       0       0       0       0       0       0       0       0
       0       0       0       0       0       0       0       0
       0       0       0       0       0       0       0       0
       0       0       0       0       0       0       0       0
       0       0       0       0       0       0       0       0
       0       0       0       0       0       0       0       0
       0       0       0       0       0       0       0       0
       0       0       0       0       0       0       0       0
       0       0       0       0       0       0       0       0
       0       0       0       0       0       0       0       0
       0       0       0       0       0       0       0       0
       0       0       0       0       0       0       0       0
       0       0       0       0       0       0       0       0
       0       0       0       0       0       0       0       0
       0       0       0       0       0       0       0       0
       0       0       0       0       0       0       0       0
       0       0       0       0       0       0       0       0
       0       0       0       0       0       0       0       0
       0       0       0       0       0       0       0       0
       0       0       0       0       0       0       0       0
       0       0       0       0       0       0       0       0
       0       0       0       0       0       0       0       0
       0       0       0       0       0       0       0       0
       0       0       0       0       0       0       0       0
       0       0       0       0       0       0       0       0
       0       0       0       0       0       0       0       0
       0       0       0       0       0       0       0       0
       0       0       0       0       0       0       0       0
       0       0       0       0       0       0       0       0
       0       0       0       0       0       0       0       0
       0       0       0       0       0       0       0       0
       0       0       0       0       0       0       0       0
       0       0       0       0       0       0       0       0
       0       0       0       0       0       0       0       0
       0       0       0       0       0       0       0       0
       0       0       0       0       0       0       0       0
       0       0       0       0       0       0       0       0
       0       0       0       0       0       0       0       0
       0       0       0       0       0       0       0       0
       0       0       0       0       0       0       0       0
       0       0       0       0       0       0       0       0
       0       0       0       0       0       0       0       0
       0       0       0       0       0       0       0       0
       0       0       0       0       0       0       0       0
       0       0       0       0       0       0       0       0
       0       0       0       0       0       0       0       0
       0       0       0       0       0       0       0       0
       0       0       0       0       0       0       0       0
       0       0       0       0       0       0       0       0
       0       0       0       0       0       0       0       0
       0       0       0       0       0       0       0       0
       0       0       0       0       0       0       0       0
       0       0       0       0       0       0       0       0
       0       0       0       0       0       0       0       0
       0       0       0       0       0       0       0       0
       0       0       0       0       0       0       0       0
       0       0       0       0       0       0       0       0
       0       0       0       0       0       0       0       0
       0       0       0       0       0       0       0       0
       0       0       0       0       0       0       0       0
       0       0       0       0       0       0       0       0
       0       0       0       0       0       0       0       0
       0       0       0       0       0       0       0       0
       0       0       0       0       0       0       0       0
       0       0       0       0       0       0       0       0
       0       0       0       0       0       0       0       0
       0       0       0       0       0       0       0       0
       0       0       0       0       0       0       0       0
       0       0       0       0       0       0       0       0
       0       0       0       0       0       0       0       0
       0       0       0       0       0       0       0       0
       0       0       0       0       0       0       0       0
       0       0       0       0       0       0       0       0
       0       0       0       0       0       0       0       0
       0       0       0       0       0       0       0       0
       0       0       0       0       0       0       0       0
       0       0       0       0       0       0       0       0
       0       0       0       0       0       0       0       0
       0       0       0       0       0       0       0       0
       0       0       0       0       0       0       0       0
       0       0       0       0       0       0       0       0
       0       0       0       0       0       0       0       0
       0       0       0       0       0       0       0       0
       0       0       0       0       0       0       0       0
       0       0       0       0       0       0       0       0
       0       0       0       0       0       0       0       0
       0       0       0       0       0       0       0       0
       0       0       0       0       0       0       0       0
       0       0       0       0       0       0       0       0
       0       0       0       0       0       0       0       0
       0       0       0       0       0       0       0       0
       0       0       0       0       0       0       0       0
       0       0       0       0       0       0       0       0
       0       0       0       0       0       0       0       0
       0       0       0       0       0       0       0       0
       0       0       0       0       0       0       0       0
       0       0       0       0       0       0       0       0
       0       0       0       0       0       0       0       0
       0       0       0       0       0       0       0       0
       0       0       0       0       0       0       0       0
       0       0       0       0       0       0       0       0
       0       0       0       0       0       0       0       0
       0       0       0       0       0       0       0       0
       0       0       0       0       0       0       0       0
       0       0       0       0       0       0       0       0
       0       0       0       0       0       0       0       0
       0       0       0       0       0       0       0       0
       0       0       0       0       0       0       0       0
       0       0       0       0       0       0       0       0
       0       0       0       0       0       0       0       0
       0       0       0       0       0       0       0       0
       0       0       0       0       0       0       0       0
       0       0       0       0       0       0       0       0
       0       0       0       0       0       0       0       0
       0       0       0       0       0       0       0       0
       0       0       0       0       0       0       0       0
       0       0       0       0       0       0       0       0
       0       0       0       0       0       0       0       0
       0       0       0       0       0       0       0       0
       0       0       0       0       0       0       0       0
       0       0       0       0       0       0       0       0
       0       0       0       0       0       0       0       0
       0       0       0       0       0       0       0       0
       0       0       0       0       0       0       0       0
       0       0       0       0       0       0       0       0
       0       0       0       0       0       0       0       0
       0       0       0       0       0       0       0       0
       0       0       0       0       0       0       0       0
       0       0       0       0       0       0       0       0
       0       0       0       0       0       0       0       0
       0       0       0       0       0       0       0       0
       0       0       0       0       0       0       0       0
       0       0       0       0       0       0       0       0
       0       0       0       0       0       0       0       0
       0       0       0       0       0       0       0       0
       0       0       0       0       0       0       0       0
       0       0       0       0       0       0       0       0
       0       0       0       0       0       0       0       0
       0       0       0       0       0       0       0       0
       0       0       0       0       0       0       0       0
       0       0       0       0       0       0       0       0
       0       0       0       0       0       0       0       0
       0       0       0       0       0       0       0       0
       0       0       0       0       0       0       0       0
       0       0       0       0       0       0       0       0
       0       0       0       0       0       0       0       0
       0       0       0       0       0       0       0       0
       0       0       0       0       0       0       0       0
       0       0       0       0       0       0       0       0
       0       0       0       0       0       0       0       0
       0       0       0       0       0       0       0       0
       0       0       0       0       0       0       0       0
       0       0       0       0       0       0       0       0
       0       0       0       0       0       0       0       0
       0       0       0       0       0       0       0       0
       0       0       0       0       0       0       0       0
       0       0       0       0       0       0       0       0
       0       0       0       0       0       0       0       0
       0       0       0       0       0       0       0       0
       0       0       0       0       0       0       0       0
       0       0       0       0       0       0       0       0
       0       0       0       0       0       0       0       0
       0       0       0       0       0       0       0       0
       0       0       0       0       0       0       0       0
       0       0       0       0       0       0       0       0
       0       0       0       0       0       0       0       0
       0       0       0       0       0       0       0       0
       0       0       0       0       0       0       0       0
       0       0       0       0       0       0       0       0
       0       0       0       0       0       0       0       0
       0       0       0       0       0       0       0       0
       0       0       0       0       0       0       0       0
       0       0       0       0       0       0       0       0
       0       0       0       0       0       0       0       0
       0       0       0       0       0       0       0       0
       0       0       0       0       0       0       0       0
       0       0       0       0       0       0       0       0
       0       0       0       0       0       0       0       0
       0       0       0       0       0       0       0       0
       0       0       0       0       0       0       0       0
       0       0       0       0       0       0       0       0
       0       0       0       0       0       0       0       0
       0       0       0       0       0       0       0       0
       0       0       0       0       0       0       0       0
       0       0       0       0       0       0       0       0
       0       0       0       0       0       0       0       0
       0       0       0       0       0       0       0       0
       0       0       0       0       0       0       0       0
       0       0       0       0       0       0       0       0
       0       0       0       0       0       0       0       0
       0       0       0       0       0       0       0       0
       0       0       0       0       0       0       0       0
       0       0       0       0       0       0       0       0
       0       0       0       0       0       0       0       0
       0       0       0       0       0       0       0       0
       0       0       0       0       0       0       0       0
       0       0       0       0       0       0       0       0
       0       0       0       0       0       0       0       0
       0       0       0       0       0       0       0       0
       0       0       0       0       0       0       0       0
       0       0       0       0       0       0       0       0
       0       0       0       0       0       0       0       0
       0       0       0       0       0       0       0       0
       0       0       0       0       0       0       0       0
       0       0       0       0       0       0       0       0
       0       0       0       0       0       0       0       0
       0       0       0       0       0       0       0       0
       0       0       0       0       0       0       0       0
       0       0       0       0       0       0       0       0
       0       0       0       0       0       0       0       0
       0       0       0       0       0       0       0       0
       0       0       0       0       0       0       0       0
       0       0       0       0       0       0       0       0
       0       0       0       0       0       0       0       0
       0       0       0       0       0       0       0       0
       0       0       0       0       0       0       0       0
       0       0       0       0       0       0       0       0
       0       0       0       0       0       0       0       0
       0       0       0       0       0       0       0       0
       0       0       0       0       0       0       0       0
       0       0       0       0       0       0       0       0
       0       0       0       0       0       0       0       0
       0       0       0       0       0       0       0       0
       0       0       0       0       0       0       0       0
       0       0       0       0       0       0       0       0
       0       0       0       0       0       0       0       0
       0       0       0       0       0       0       0       0
       0       0       0       0       0       0       0       0
       0       0       0       0       0       0       0       0
       0       0       0       0       0       0       0       0
       0       0       0       0       0       0       0       0
       0       0       0       0       0       0       0       0
       0       0       0       0       0       0       0       0
       0       0       0       0       0       0       0       0
       0       0       0       0       0       0       0       0
       0       0       0       0       0       0       0       0
       0       0       0       0       0       0       0       0
       0       0       0       0       0       0       0       0
       0       0       0       0       0       0       0       0
       0       0       0       0       0       0       0       0
       0       0       0       0       0       0       0       0
       0       0       0       0       0       0       0       0
       0       0       0       0       0       0       0       0
       0       0       0       0       0       0       0       0
       0       0       0       0       0       0       0       0
       0       0       0       0       0       0       0       0
       0       0       0       0       0       0       0       0
       0       0       0       0       0       0       0       0
       0       0       0       0       0       0       0       0
       0       0       0       0       0       0       0       0
       0       0       0       0       0       0       0       0
       0       0       0       0       0       0       0       0
       0       0       0       0       0       0       0       0
       0       0       0       0       0       0       0       0
       0       0       0       0       0       0       0       0
       0       0       0       0       0       0       0       0
       0       0       0       0       0       0       0       0
       0       0       0       0       0       0       0       0
       0       0       0       0       0       0       0       0
       0       0       0       0       0       0       0       0
       0       0       0       0       0       0       0       0
       0       0       0       0       0       0       0       0
       0       0       0       0       0       0       0       0
       0       0       0       0       0       0       0       0
       0       0       0       0       0       0       0       0
       0       0       0       0       0       0       0       0
       0       0       0       0       0       0       0       0
       0       0       0       0       0       0       0       0
       0       0       0       0       0       0       0       0
       0       0       0       0       0       0       0       0
       0       0       0       0       0       0       0       0
       0       0       0       0       0       0       0       0
       0       0       0       0       0       0       0       0
       0       0       0       0       0       0       0       0
       0       0       0       0       0       0       0       0
       0       0       0       0       0       0       0       0
       0       0       0       0       0       0       0       0
       0       0       0       0       0       0       0       0
       0       0       0       0       0       0       0       0
       0       0       0       0       0       0       0       0
       0       0       0       0       0       0       0       0
       0       0       0       0       0       0       0       0
       0       0       0       0       0       0       0       0
       0       0       0       0       0       0       0       0
       0       0       0       0       0       0       0       0
       0       0       0       0       0       0       0       0
       0       0       0       0       0       0       0       0
       0       0       0       0       0       0       0       0
       0       0       0       0       0       0       0       0
       0       0       0       0       0       0       0       0

       1       0 !NGRP NST2
       0       0       0

