PSF

       3 !NTITLE
 REMARKS original generated structure x-plor psf file
 REMARKS topology argon_toppar.str 
 REMARKS segment ARG { first NONE; last NONE; auto none  }

     216 !NATOM
       1 ARG  1    AR   AR   AR     0.000000       39.9480           0
       2 ARG  2    AR   AR   AR     0.000000       39.9480           0
       3 ARG  3    AR   AR   AR     0.000000       39.9480           0
       4 ARG  4    AR   AR   AR     0.000000       39.9480           0
       5 ARG  5    AR   AR   AR     0.000000       39.9480           0
       6 ARG  6    AR   AR   AR     0.000000       39.9480           0
       7 ARG  7    AR   AR   AR     0.000000       39.9480           0
       8 ARG  8    AR   AR   AR     0.000000       39.9480           0
       9 ARG  9    AR   AR   AR     0.000000       39.9480           0
      10 ARG  10   AR   AR   AR     0.000000       39.9480           0
      11 ARG  11   AR   AR   AR     0.000000       39.9480           0
      12 ARG  12   AR   AR   AR     0.000000       39.9480           0
      13 ARG  13   AR   AR   AR     0.000000       39.9480           0
      14 ARG  14   AR   AR   AR     0.000000       39.9480           0
      15 ARG  15   AR   AR   AR     0.000000       39.9480           0
      16 ARG  16   AR   AR   AR     0.000000       39.9480           0
      17 ARG  17   AR   AR   AR     0.000000       39.9480           0
      18 ARG  18   AR   AR   AR     0.000000       39.9480           0
      19 ARG  19   AR   AR   AR     0.000000       39.9480           0
      20 ARG  20   AR   AR   AR     0.000000       39.9480           0
      21 ARG  21   AR   AR   AR     0.000000       39.9480           0
      22 ARG  22   AR   AR   AR     0.000000       39.9480           0
      23 ARG  23   AR   AR   AR     0.000000       39.9480           0
      24 ARG  24   AR   AR   AR     0.000000       39.9480           0
      25 ARG  25   AR   AR   AR     0.000000       39.9480           0
      26 ARG  26   AR   AR   AR     0.000000       39.9480           0
      27 ARG  27   AR   AR   AR     0.000000       39.9480           0
      28 ARG  28   AR   AR   AR     0.000000       39.9480           0
      29 ARG  29   AR   AR   AR     0.000000       39.9480           0
      30 ARG  30   AR   AR   AR     0.000000       39.9480           0
      31 ARG  31   AR   AR   AR     0.000000       39.9480           0
      32 ARG  32   AR   AR   AR     0.000000       39.9480           0
      33 ARG  33   AR   AR   AR     0.000000       39.9480           0
      34 ARG  34   AR   AR   AR     0.000000       39.9480           0
      35 ARG  35   AR   AR   AR     0.000000       39.9480           0
      36 ARG  36   AR   AR   AR     0.000000       39.9480           0
      37 ARG  37   AR   AR   AR     0.000000       39.9480           0
      38 ARG  38   AR   AR   AR     0.000000       39.9480           0
      39 ARG  39   AR   AR   AR     0.000000       39.9480           0
      40 ARG  40   AR   AR   AR     0.000000       39.9480           0
      41 ARG  41   AR   AR   AR     0.000000       39.9480           0
      42 ARG  42   AR   AR   AR     0.000000       39.9480           0
      43 ARG  43   AR   AR   AR     0.000000       39.9480           0
      44 ARG  44   AR   AR   AR     0.000000       39.9480           0
      45 ARG  45   AR   AR   AR     0.000000       39.9480           0
      46 ARG  46   AR   AR   AR     0.000000       39.9480           0
      47 ARG  47   AR   AR   AR     0.000000       39.9480           0
      48 ARG  48   AR   AR   AR     0.000000       39.9480           0
      49 ARG  49   AR   AR   AR     0.000000       39.9480           0
      50 ARG  50   AR   AR   AR     0.000000       39.9480           0
      51 ARG  51   AR   AR   AR     0.000000       39.9480           0
      52 ARG  52   AR   AR   AR     0.000000       39.9480           0
      53 ARG  53   AR   AR   AR     0.000000       39.9480           0
      54 ARG  54   AR   AR   AR     0.000000       39.9480           0
      55 ARG  55   AR   AR   AR     0.000000       39.9480           0
      56 ARG  56   AR   AR   AR     0.000000       39.9480           0
      57 ARG  57   AR   AR   AR     0.000000       39.9480           0
      58 ARG  58   AR   AR   AR     0.000000       39.9480           0
      59 ARG  59   AR   AR   AR     0.000000       39.9480           0
      60 ARG  60   AR   AR   AR     0.000000       39.9480           0
      61 ARG  61   AR   AR   AR     0.000000       39.9480           0
      62 ARG  62   AR   AR   AR     0.000000       39.9480           0
      63 ARG  63   AR   AR   AR     0.000000       39.9480           0
      64 ARG  64   AR   AR   AR     0.000000       39.9480           0
      65 ARG  65   AR   AR   AR     0.000000       39.9480           0
      66 ARG  66   AR   AR   AR     0.000000       39.9480           0
      67 ARG  67   AR   AR   AR     0.000000       39.9480           0
      68 ARG  68   AR   AR   AR     0.000000       39.9480           0
      69 ARG  69   AR   AR   AR     0.000000       39.9480           0
      70 ARG  70   AR   AR   AR     0.000000       39.9480           0
      71 ARG  71   AR   AR   AR     0.000000       39.9480           0
      72 ARG  72   AR   AR   AR     0.000000       39.9480           0
      73 ARG  73   AR   AR   AR     0.000000       39.9480           0
      74 ARG  74   AR   AR   AR     0.000000       39.9480           0
      75 ARG  75   AR   AR   AR     0.000000       39.9480           0
      76 ARG  76   AR   AR   AR     0.000000       39.9480           0
      77 ARG  77   AR   AR   AR     0.000000       39.9480           0
      78 ARG  78   AR   AR   AR     0.000000       39.9480           0
      79 ARG  79   AR   AR   AR     0.000000       39.9480           0
      80 ARG  80   AR   AR   AR     0.000000       39.9480           0
      81 ARG  81   AR   AR   AR     0.000000       39.9480           0
      82 ARG  82   AR   AR   AR     0.000000       39.9480           0
      83 ARG  83   AR   AR   AR     0.000000       39.9480           0
      84 ARG  84   AR   AR   AR     0.000000       39.9480           0
      85 ARG  85   AR   AR   AR     0.000000       39.9480           0
      86 ARG  86   AR   AR   AR     0.000000       39.9480           0
      87 ARG  87   AR   AR   AR     0.000000       39.9480           0
      88 ARG  88   AR   AR   AR     0.000000       39.9480           0
      89 ARG  89   AR   AR   AR     0.000000       39.9480           0
      90 ARG  90   AR   AR   AR     0.000000       39.9480           0
      91 ARG  91   AR   AR   AR     0.000000       39.9480           0
      92 ARG  92   AR   AR   AR     0.000000       39.9480           0
      93 ARG  93   AR   AR   AR     0.000000       39.9480           0
      94 ARG  94   AR   AR   AR     0.000000       39.9480           0
      95 ARG  95   AR   AR   AR     0.000000       39.9480           0
      96 ARG  96   AR   AR   AR     0.000000       39.9480           0
      97 ARG  97   AR   AR   AR     0.000000       39.9480           0
      98 ARG  98   AR   AR   AR     0.000000       39.9480           0
      99 ARG  99   AR   AR   AR     0.000000       39.9480           0
     100 ARG  100  AR   AR   AR     0.000000       39.9480           0
     101 ARG  101  AR   AR   AR     0.000000       39.9480           0
     102 ARG  102  AR   AR   AR     0.000000       39.9480           0
     103 ARG  103  AR   AR   AR     0.000000       39.9480           0
     104 ARG  104  AR   AR   AR     0.000000       39.9480           0
     105 ARG  105  AR   AR   AR     0.000000       39.9480           0
     106 ARG  106  AR   AR   AR     0.000000       39.9480           0
     107 ARG  107  AR   AR   AR     0.000000       39.9480           0
     108 ARG  108  AR   AR   AR     0.000000       39.9480           0
     109 ARG  109  AR   AR   AR     0.000000       39.9480           0
     110 ARG  110  AR   AR   AR     0.000000       39.9480           0
     111 ARG  111  AR   AR   AR     0.000000       39.9480           0
     112 ARG  112  AR   AR   AR     0.000000       39.9480           0
     113 ARG  113  AR   AR   AR     0.000000       39.9480           0
     114 ARG  114  AR   AR   AR     0.000000       39.9480           0
     115 ARG  115  AR   AR   AR     0.000000       39.9480           0
     116 ARG  116  AR   AR   AR     0.000000       39.9480           0
     117 ARG  117  AR   AR   AR     0.000000       39.9480           0
     118 ARG  118  AR   AR   AR     0.000000       39.9480           0
     119 ARG  119  AR   AR   AR     0.000000       39.9480           0
     120 ARG  120  AR   AR   AR     0.000000       39.9480           0
     121 ARG  121  AR   AR   AR     0.000000       39.9480           0
     122 ARG  122  AR   AR   AR     0.000000       39.9480           0
     123 ARG  123  AR   AR   AR     0.000000       39.9480           0
     124 ARG  124  AR   AR   AR     0.000000       39.9480           0
     125 ARG  125  AR   AR   AR     0.000000       39.9480           0
     126 ARG  126  AR   AR   AR     0.000000       39.9480           0
     127 ARG  127  AR   AR   AR     0.000000       39.9480           0
     128 ARG  128  AR   AR   AR     0.000000       39.9480           0
     129 ARG  129  AR   AR   AR     0.000000       39.9480           0
     130 ARG  130  AR   AR   AR     0.000000       39.9480           0
     131 ARG  131  AR   AR   AR     0.000000       39.9480           0
     132 ARG  132  AR   AR   AR     0.000000       39.9480           0
     133 ARG  133  AR   AR   AR     0.000000       39.9480           0
     134 ARG  134  AR   AR   AR     0.000000       39.9480           0
     135 ARG  135  AR   AR   AR     0.000000       39.9480           0
     136 ARG  136  AR   AR   AR     0.000000       39.9480           0
     137 ARG  137  AR   AR   AR     0.000000       39.9480           0
     138 ARG  138  AR   AR   AR     0.000000       39.9480           0
     139 ARG  139  AR   AR   AR     0.000000       39.9480           0
     140 ARG  140  AR   AR   AR     0.000000       39.9480           0
     141 ARG  141  AR   AR   AR     0.000000       39.9480           0
     142 ARG  142  AR   AR   AR     0.000000       39.9480           0
     143 ARG  143  AR   AR   AR     0.000000       39.9480           0
     144 ARG  144  AR   AR   AR     0.000000       39.9480           0
     145 ARG  145  AR   AR   AR     0.000000       39.9480           0
     146 ARG  146  AR   AR   AR     0.000000       39.9480           0
     147 ARG  147  AR   AR   AR     0.000000       39.9480           0
     148 ARG  148  AR   AR   AR     0.000000       39.9480           0
     149 ARG  149  AR   AR   AR     0.000000       39.9480           0
     150 ARG  150  AR   AR   AR     0.000000       39.9480           0
     151 ARG  151  AR   AR   AR     0.000000       39.9480           0
     152 ARG  152  AR   AR   AR     0.000000       39.9480           0
     153 ARG  153  AR   AR   AR     0.000000       39.9480           0
     154 ARG  154  AR   AR   AR     0.000000       39.9480           0
     155 ARG  155  AR   AR   AR     0.000000       39.9480           0
     156 ARG  156  AR   AR   AR     0.000000       39.9480           0
     157 ARG  157  AR   AR   AR     0.000000       39.9480           0
     158 ARG  158  AR   AR   AR     0.000000       39.9480           0
     159 ARG  159  AR   AR   AR     0.000000       39.9480           0
     160 ARG  160  AR   AR   AR     0.000000       39.9480           0
     161 ARG  161  AR   AR   AR     0.000000       39.9480           0
     162 ARG  162  AR   AR   AR     0.000000       39.9480           0
     163 ARG  163  AR   AR   AR     0.000000       39.9480           0
     164 ARG  164  AR   AR   AR     0.000000       39.9480           0
     165 ARG  165  AR   AR   AR     0.000000       39.9480           0
     166 ARG  166  AR   AR   AR     0.000000       39.9480           0
     167 ARG  167  AR   AR   AR     0.000000       39.9480           0
     168 ARG  168  AR   AR   AR     0.000000       39.9480           0
     169 ARG  169  AR   AR   AR     0.000000       39.9480           0
     170 ARG  170  AR   AR   AR     0.000000       39.9480           0
     171 ARG  171  AR   AR   AR     0.000000       39.9480           0
     172 ARG  172  AR   AR   AR     0.000000       39.9480           0
     173 ARG  173  AR   AR   AR     0.000000       39.9480           0
     174 ARG  174  AR   AR   AR     0.000000       39.9480           0
     175 ARG  175  AR   AR   AR     0.000000       39.9480           0
     176 ARG  176  AR   AR   AR     0.000000       39.9480           0
     177 ARG  177  AR   AR   AR     0.000000       39.9480           0
     178 ARG  178  AR   AR   AR     0.000000       39.9480           0
     179 ARG  179  AR   AR   AR     0.000000       39.9480           0
     180 ARG  180  AR   AR   AR     0.000000       39.9480           0
     181 ARG  181  AR   AR   AR     0.000000       39.9480           0
     182 ARG  182  AR   AR   AR     0.000000       39.9480           0
     183 ARG  183  AR   AR   AR     0.000000       39.9480           0
     184 ARG  184  AR   AR   AR     0.000000       39.9480           0
     185 ARG  185  AR   AR   AR     0.000000       39.9480           0
     186 ARG  186  AR   AR   AR     0.000000       39.9480           0
     187 ARG  187  AR   AR   AR     0.000000       39.9480           0
     188 ARG  188  AR   AR   AR     0.000000       39.9480           0
     189 ARG  189  AR   AR   AR     0.000000       39.9480           0
     190 ARG  190  AR   AR   AR     0.000000       39.9480           0
     191 ARG  191  AR   AR   AR     0.000000       39.9480           0
     192 ARG  192  AR   AR   AR     0.000000       39.9480           0
     193 ARG  193  AR   AR   AR     0.000000       39.9480           0
     194 ARG  194  AR   AR   AR     0.000000       39.9480           0
     195 ARG  195  AR   AR   AR     0.000000       39.9480           0
     196 ARG  196  AR   AR   AR     0.000000       39.9480           0
     197 ARG  197  AR   AR   AR     0.000000       39.9480           0
     198 ARG  198  AR   AR   AR     0.000000       39.9480           0
     199 ARG  199  AR   AR   AR     0.000000       39.9480           0
     200 ARG  200  AR   AR   AR     0.000000       39.9480           0
     201 ARG  201  AR   AR   AR     0.000000       39.9480           0
     202 ARG  202  AR   AR   AR     0.000000       39.9480           0
     203 ARG  203  AR   AR   AR     0.000000       39.9480           0
     204 ARG  204  AR   AR   AR     0.000000       39.9480           0
     205 ARG  205  AR   AR   AR     0.000000       39.9480           0
     206 ARG  206  AR   AR   AR     0.000000       39.9480           0
     207 ARG  207  AR   AR   AR     0.000000       39.9480           0
     208 ARG  208  AR   AR   AR     0.000000       39.9480           0
     209 ARG  209  AR   AR   AR     0.000000       39.9480           0
     210 ARG  210  AR   AR   AR     0.000000       39.9480           0
     211 ARG  211  AR   AR   AR     0.000000       39.9480           0
     212 ARG  212  AR   AR   AR     0.000000       39.9480           0
     213 ARG  213  AR   AR   AR     0.000000       39.9480           0
     214 ARG  214  AR   AR   AR     0.000000       39.9480           0
     215 ARG  215  AR   AR   AR     0.000000       39.9480           0
     216 ARG  216  AR   AR   AR     0.000000       39.9480           0

       0 !NBOND: bonds


       0 !NTHETA: angles


       0 !NPHI: dihedrals


       0 !NIMPHI: impropers


       0 !NDON: donors


       0 !NACC: acceptors


       0 !NNB

       0       0       0       0       0       0       0       0
       0       0       0       0       0       0       0       0
       0       0       0       0       0       0       0       0
       0       0       0       0       0       0       0       0
       0       0       0       0       0       0       0       0
       0       0       0       0       0       0       0       0
       0       0       0       0       0       0       0       0
       0       0       0       0       0       0       0       0
       0       0       0       0       0       0       0       0
       0       0       0       0       0       0       0       0
       0       0       0       0       0       0       0       0
       0       0       0       0       0       0       0       0
       0       0       0       0       0       0       0       0
       0       0       0       0       0       0       0       0
       0       0       0       0       0       0       0       0
       0       0       0       0       0       0       0       0
       0       0       0       0       0       0       0       0
       0       0       0       0       0       0       0       0
       0       0       0       0       0       0       0       0
       0       0       0       0       0       0       0       0
       0       0       0       0       0       0       0       0
       0       0       0       0       0       0       0       0
       0       0       0       0       0       0       0       0
       0       0       0       0       0       0       0       0
       0       0       0       0       0       0       0       0
       0       0       0       0       0       0       0       0
       0       0       0       0       0       0       0       0

       1       0 !NGRP
       0       0       0

